    1C
    1UUSER                                                              
    1UDATE              27.october.2022                                 
    1UTIME              01:01:41                                        
    1UHOST                                                              
    1UPGM               CalculiX                                        
    1UVERSION           Version 2.17                             
    1UCOMPILETIME       Thu Jul 23 21:43:50 CEST 2020                    
    1UDIR                                                               
    1UDBN                                                               
    1UMAT    1SOLIDMATERIAL                                             
    2C                          4267                                     1
 -1         1 4.12666E+01 4.09091E+01 0.00000E+00
 -1         2 5.44682E+01 3.76625E+01 0.00000E+00
 -1         3 1.50000E+02 0.00000E+00 0.00000E+00
 -1         4 1.50000E+02 5.00000E+01 0.00000E+00
 -1         5 0.00000E+00 0.00000E+00 0.00000E+00
 -1         6 0.00000E+00 5.00000E+01 0.00000E+00
 -1         7 0.00000E+00 4.70500E+01 0.00000E+00
 -1         8 0.00000E+00 4.41000E+01 0.00000E+00
 -1         9 0.00000E+00 4.11500E+01 0.00000E+00
 -1        10 0.00000E+00 3.82000E+01 0.00000E+00
 -1        11 0.00000E+00 3.52500E+01 0.00000E+00
 -1        12 0.00000E+00 3.23500E+01 0.00000E+00
 -1        13 0.00000E+00 2.94000E+01 0.00000E+00
 -1        14 0.00000E+00 2.64500E+01 0.00000E+00
 -1        15 0.00000E+00 2.35000E+01 0.00000E+00
 -1        16 0.00000E+00 2.05500E+01 0.00000E+00
 -1        17 0.00000E+00 1.76000E+01 0.00000E+00
 -1        18 0.00000E+00 1.47000E+01 0.00000E+00
 -1        19 0.00000E+00 1.17500E+01 0.00000E+00
 -1        20 0.00000E+00 8.80000E+00 0.00000E+00
 -1        21 0.00000E+00 5.85000E+00 0.00000E+00
 -1        22 0.00000E+00 2.90000E+00 0.00000E+00
 -1        23 3.15000E+00 5.00000E+01 0.00000E+00
 -1        24 6.15000E+00 5.00000E+01 0.00000E+00
 -1        25 9.15000E+00 5.00000E+01 0.00000E+00
 -1        26 1.21500E+01 5.00000E+01 0.00000E+00
 -1        27 1.51500E+01 5.00000E+01 0.00000E+00
 -1        28 1.83000E+01 5.00000E+01 0.00000E+00
 -1        29 2.13000E+01 5.00000E+01 0.00000E+00
 -1        30 2.43000E+01 5.00000E+01 0.00000E+00
 -1        31 2.73000E+01 5.00000E+01 0.00000E+00
 -1        32 3.03000E+01 5.00000E+01 0.00000E+00
 -1        33 3.33000E+01 5.00000E+01 0.00000E+00
 -1        34 3.64500E+01 5.00000E+01 0.00000E+00
 -1        35 3.94500E+01 5.00000E+01 0.00000E+00
 -1        36 4.20000E+01 5.00000E+01 0.00000E+00
 -1        37 4.44000E+01 5.00000E+01 0.00000E+00
 -1        38 4.65000E+01 5.00000E+01 0.00000E+00
 -1        39 4.87500E+01 5.00000E+01 0.00000E+00
 -1        40 5.10000E+01 5.00000E+01 0.00000E+00
 -1        41 5.34000E+01 5.00000E+01 0.00000E+00
 -1        42 5.62500E+01 5.00000E+01 0.00000E+00
 -1        43 5.92500E+01 5.00000E+01 0.00000E+00
 -1        44 6.22500E+01 5.00000E+01 0.00000E+00
 -1        45 6.54000E+01 5.00000E+01 0.00000E+00
 -1        46 6.84000E+01 5.00000E+01 0.00000E+00
 -1        47 7.14000E+01 5.00000E+01 0.00000E+00
 -1        48 7.44000E+01 5.00000E+01 0.00000E+00
 -1        49 7.74000E+01 5.00000E+01 0.00000E+00
 -1        50 8.05500E+01 5.00000E+01 0.00000E+00
 -1        51 8.35500E+01 5.00000E+01 0.00000E+00
 -1        52 8.65500E+01 5.00000E+01 0.00000E+00
 -1        53 8.95500E+01 5.00000E+01 0.00000E+00
 -1        54 9.25500E+01 5.00000E+01 0.00000E+00
 -1        55 9.55500E+01 5.00000E+01 0.00000E+00
 -1        56 9.87000E+01 5.00000E+01 0.00000E+00
 -1        57 1.01700E+02 5.00000E+01 0.00000E+00
 -1        58 1.04700E+02 5.00000E+01 0.00000E+00
 -1        59 1.07700E+02 5.00000E+01 0.00000E+00
 -1        60 1.10700E+02 5.00000E+01 0.00000E+00
 -1        61 1.13700E+02 5.00000E+01 0.00000E+00
 -1        62 1.16850E+02 5.00000E+01 0.00000E+00
 -1        63 1.19850E+02 5.00000E+01 0.00000E+00
 -1        64 1.22850E+02 5.00000E+01 0.00000E+00
 -1        65 1.25850E+02 5.00000E+01 0.00000E+00
 -1        66 1.28850E+02 5.00000E+01 0.00000E+00
 -1        67 1.31850E+02 5.00000E+01 0.00000E+00
 -1        68 1.35000E+02 5.00000E+01 0.00000E+00
 -1        69 1.38000E+02 5.00000E+01 0.00000E+00
 -1        70 1.41000E+02 5.00000E+01 0.00000E+00
 -1        71 1.44000E+02 5.00000E+01 0.00000E+00
 -1        72 1.47000E+02 5.00000E+01 0.00000E+00
 -1        73 3.15000E+00 0.00000E+00 0.00000E+00
 -1        74 6.15000E+00 0.00000E+00 0.00000E+00
 -1        75 9.15000E+00 0.00000E+00 0.00000E+00
 -1        76 1.21500E+01 0.00000E+00 0.00000E+00
 -1        77 1.51500E+01 0.00000E+00 0.00000E+00
 -1        78 1.81500E+01 0.00000E+00 0.00000E+00
 -1        79 2.11500E+01 0.00000E+00 0.00000E+00
 -1        80 2.41500E+01 0.00000E+00 0.00000E+00
 -1        81 2.71500E+01 0.00000E+00 0.00000E+00
 -1        82 3.01500E+01 0.00000E+00 0.00000E+00
 -1        83 3.31500E+01 0.00000E+00 0.00000E+00
 -1        84 3.61500E+01 0.00000E+00 0.00000E+00
 -1        85 3.91500E+01 0.00000E+00 0.00000E+00
 -1        86 4.21500E+01 0.00000E+00 0.00000E+00
 -1        87 4.51500E+01 0.00000E+00 0.00000E+00
 -1        88 4.81500E+01 0.00000E+00 0.00000E+00
 -1        89 5.11500E+01 0.00000E+00 0.00000E+00
 -1        90 5.41500E+01 0.00000E+00 0.00000E+00
 -1        91 5.71500E+01 0.00000E+00 0.00000E+00
 -1        92 6.01500E+01 0.00000E+00 0.00000E+00
 -1        93 6.31500E+01 0.00000E+00 0.00000E+00
 -1        94 6.61500E+01 0.00000E+00 0.00000E+00
 -1        95 6.91500E+01 0.00000E+00 0.00000E+00
 -1        96 7.21500E+01 0.00000E+00 0.00000E+00
 -1        97 7.51500E+01 0.00000E+00 0.00000E+00
 -1        98 7.81500E+01 0.00000E+00 0.00000E+00
 -1        99 8.11500E+01 0.00000E+00 0.00000E+00
 -1       100 8.41500E+01 0.00000E+00 0.00000E+00
 -1       101 8.71500E+01 0.00000E+00 0.00000E+00
 -1       102 9.01500E+01 0.00000E+00 0.00000E+00
 -1       103 9.31500E+01 0.00000E+00 0.00000E+00
 -1       104 9.61500E+01 0.00000E+00 0.00000E+00
 -1       105 9.91500E+01 0.00000E+00 0.00000E+00
 -1       106 1.02150E+02 0.00000E+00 0.00000E+00
 -1       107 1.05150E+02 0.00000E+00 0.00000E+00
 -1       108 1.08150E+02 0.00000E+00 0.00000E+00
 -1       109 1.11150E+02 0.00000E+00 0.00000E+00
 -1       110 1.14150E+02 0.00000E+00 0.00000E+00
 -1       111 1.17150E+02 0.00000E+00 0.00000E+00
 -1       112 1.20150E+02 0.00000E+00 0.00000E+00
 -1       113 1.23150E+02 0.00000E+00 0.00000E+00
 -1       114 1.26150E+02 0.00000E+00 0.00000E+00
 -1       115 1.29150E+02 0.00000E+00 0.00000E+00
 -1       116 1.32150E+02 0.00000E+00 0.00000E+00
 -1       117 1.35150E+02 0.00000E+00 0.00000E+00
 -1       118 1.38150E+02 0.00000E+00 0.00000E+00
 -1       119 1.41150E+02 0.00000E+00 0.00000E+00
 -1       120 1.44150E+02 0.00000E+00 0.00000E+00
 -1       121 1.47150E+02 0.00000E+00 0.00000E+00
 -1       122 1.50000E+02 2.95000E+00 0.00000E+00
 -1       123 1.50000E+02 5.90000E+00 0.00000E+00
 -1       124 1.50000E+02 8.85000E+00 0.00000E+00
 -1       125 1.50000E+02 1.18000E+01 0.00000E+00
 -1       126 1.50000E+02 1.47500E+01 0.00000E+00
 -1       127 1.50000E+02 1.76500E+01 0.00000E+00
 -1       128 1.50000E+02 2.06000E+01 0.00000E+00
 -1       129 1.50000E+02 2.35500E+01 0.00000E+00
 -1       130 1.50000E+02 2.65000E+01 0.00000E+00
 -1       131 1.50000E+02 2.94500E+01 0.00000E+00
 -1       132 1.50000E+02 3.24000E+01 0.00000E+00
 -1       133 1.50000E+02 3.53000E+01 0.00000E+00
 -1       134 1.50000E+02 3.82500E+01 0.00000E+00
 -1       135 1.50000E+02 4.12000E+01 0.00000E+00
 -1       136 1.50000E+02 4.41500E+01 0.00000E+00
 -1       137 1.50000E+02 4.71000E+01 0.00000E+00
 -1       138 5.43228E+01 3.62433E+01 0.00000E+00
 -1       139 5.38236E+01 3.47285E+01 0.00000E+00
 -1       140 5.31102E+01 3.35191E+01 0.00000E+00
 -1       141 5.21062E+01 3.24195E+01 0.00000E+00
 -1       142 5.08411E+01 3.15287E+01 0.00000E+00
 -1       143 4.94684E+01 3.09544E+01 0.00000E+00
 -1       144 4.80186E+01 3.06842E+01 0.00000E+00
 -1       145 4.65211E+01 3.07269E+01 0.00000E+00
 -1       146 4.50202E+01 3.11045E+01 0.00000E+00
 -1       147 4.36915E+01 3.17688E+01 0.00000E+00
 -1       148 4.25494E+01 3.26820E+01 0.00000E+00
 -1       149 4.15551E+01 3.39161E+01 0.00000E+00
 -1       150 4.09258E+01 3.51730E+01 0.00000E+00
 -1       151 4.05503E+01 3.65934E+01 0.00000E+00
 -1       152 4.04836E+01 3.81268E+01 0.00000E+00
 -1       153 4.07368E+01 3.95831E+01 0.00000E+00
 -1       154 4.20389E+01 4.20810E+01 0.00000E+00
 -1       155 4.30706E+01 4.31087E+01 0.00000E+00
 -1       156 4.42315E+01 4.38693E+01 0.00000E+00
 -1       157 4.55533E+01 4.43955E+01 0.00000E+00
 -1       158 4.70457E+01 4.46498E+01 0.00000E+00
 -1       159 4.85342E+01 4.45809E+01 0.00000E+00
 -1       160 4.99151E+01 4.42209E+01 0.00000E+00
 -1       161 5.11941E+01 4.35885E+01 0.00000E+00
 -1       162 5.23039E+01 4.27237E+01 0.00000E+00
 -1       163 5.32072E+01 4.16705E+01 0.00000E+00
 -1       164 5.38821E+01 4.04664E+01 0.00000E+00
 -1       165 5.43067E+01 3.91575E+01 0.00000E+00
 -1       166 2.59800E+00 4.55750E+01 0.00000E+00
 -1       167 2.59800E+00 4.26250E+01 0.00000E+00
 -1       168 2.59800E+00 3.96750E+01 0.00000E+00
 -1       169 2.59800E+00 3.67250E+01 0.00000E+00
 -1       170 2.59800E+00 3.38250E+01 0.00000E+00
 -1       171 2.59800E+00 3.08750E+01 0.00000E+00
 -1       172 2.59800E+00 2.79250E+01 0.00000E+00
 -1       173 2.59800E+00 2.49750E+01 0.00000E+00
 -1       174 2.59800E+00 2.20250E+01 0.00000E+00
 -1       175 2.59800E+00 1.90750E+01 0.00000E+00
 -1       176 2.59800E+00 1.61750E+01 0.00000E+00
 -1       177 2.59800E+00 1.32250E+01 0.00000E+00
 -1       178 2.59800E+00 1.02750E+01 0.00000E+00
 -1       179 2.59800E+00 7.32500E+00 0.00000E+00
 -1       180 2.59800E+00 4.37500E+00 0.00000E+00
 -1       181 2.87400E+00 2.18750E+00 0.00000E+00
 -1       182 4.65000E+00 4.74020E+01 0.00000E+00
 -1       183 7.65000E+00 4.74020E+01 0.00000E+00
 -1       184 1.06500E+01 4.74020E+01 0.00000E+00
 -1       185 1.36500E+01 4.74020E+01 0.00000E+00
 -1       186 1.68000E+01 4.74020E+01 0.00000E+00
 -1       187 1.98000E+01 4.74020E+01 0.00000E+00
 -1       188 2.28000E+01 4.74020E+01 0.00000E+00
 -1       189 2.58000E+01 4.74020E+01 0.00000E+00
 -1       190 2.88000E+01 4.74020E+01 0.00000E+00
 -1       191 3.18000E+01 4.74020E+01 0.00000E+00
 -1       192 3.49500E+01 4.74020E+01 0.00000E+00
 -1       193 3.79500E+01 4.74020E+01 0.00000E+00
 -1       194 4.05000E+01 4.74020E+01 0.00000E+00
 -1       195 4.54500E+01 4.81173E+01 0.00000E+00
 -1       196 4.77000E+01 4.81173E+01 0.00000E+00
 -1       197 4.99500E+01 4.81173E+01 0.00000E+00
 -1       198 5.23500E+01 4.81173E+01 0.00000E+00
 -1       199 5.52000E+01 4.81173E+01 0.00000E+00
 -1       200 5.82000E+01 4.81173E+01 0.00000E+00
 -1       201 6.12000E+01 4.81173E+01 0.00000E+00
 -1       202 6.43500E+01 4.81173E+01 0.00000E+00
 -1       203 6.73500E+01 4.81173E+01 0.00000E+00
 -1       204 7.03500E+01 4.81173E+01 0.00000E+00
 -1       205 7.33500E+01 4.81173E+01 0.00000E+00
 -1       206 7.63500E+01 4.81173E+01 0.00000E+00
 -1       207 7.95000E+01 4.81173E+01 0.00000E+00
 -1       208 8.25000E+01 4.81173E+01 0.00000E+00
 -1       209 8.55000E+01 4.81173E+01 0.00000E+00
 -1       210 8.85000E+01 4.81173E+01 0.00000E+00
 -1       211 9.15000E+01 4.81173E+01 0.00000E+00
 -1       212 9.45000E+01 4.81173E+01 0.00000E+00
 -1       213 9.76500E+01 4.81173E+01 0.00000E+00
 -1       214 1.00650E+02 4.81173E+01 0.00000E+00
 -1       215 1.03650E+02 4.81173E+01 0.00000E+00
 -1       216 1.06650E+02 4.81173E+01 0.00000E+00
 -1       217 1.09650E+02 4.81173E+01 0.00000E+00
 -1       218 1.12650E+02 4.81173E+01 0.00000E+00
 -1       219 1.15800E+02 4.81173E+01 0.00000E+00
 -1       220 1.18800E+02 4.81173E+01 0.00000E+00
 -1       221 1.21800E+02 4.81173E+01 0.00000E+00
 -1       222 1.24800E+02 4.81173E+01 0.00000E+00
 -1       223 1.27800E+02 4.81173E+01 0.00000E+00
 -1       224 1.30800E+02 4.81173E+01 0.00000E+00
 -1       225 1.33950E+02 4.81173E+01 0.00000E+00
 -1       226 1.36950E+02 4.81173E+01 0.00000E+00
 -1       227 1.39950E+02 4.81173E+01 0.00000E+00
 -1       228 1.42950E+02 4.81173E+01 0.00000E+00
 -1       229 1.45950E+02 4.81173E+01 0.00000E+00
 -1       230 1.47975E+02 4.76087E+01 0.00000E+00
 -1       231 5.87400E+00 2.18750E+00 0.00000E+00
 -1       232 8.87400E+00 2.18750E+00 0.00000E+00
 -1       233 1.18740E+01 2.18750E+00 0.00000E+00
 -1       234 1.48740E+01 2.18750E+00 0.00000E+00
 -1       235 1.78740E+01 2.18750E+00 0.00000E+00
 -1       236 2.08740E+01 2.18750E+00 0.00000E+00
 -1       237 2.38740E+01 2.18750E+00 0.00000E+00
 -1       238 2.68740E+01 2.18750E+00 0.00000E+00
 -1       239 2.98740E+01 2.18750E+00 0.00000E+00
 -1       240 3.28740E+01 2.18750E+00 0.00000E+00
 -1       241 3.58740E+01 2.18750E+00 0.00000E+00
 -1       242 3.88740E+01 2.18750E+00 0.00000E+00
 -1       243 4.18740E+01 2.18750E+00 0.00000E+00
 -1       244 4.48740E+01 2.18750E+00 0.00000E+00
 -1       245 4.78740E+01 2.18750E+00 0.00000E+00
 -1       246 5.08740E+01 2.18750E+00 0.00000E+00
 -1       247 5.38740E+01 2.18750E+00 0.00000E+00
 -1       248 5.68740E+01 2.18750E+00 0.00000E+00
 -1       249 5.98740E+01 2.18750E+00 0.00000E+00
 -1       250 6.28740E+01 2.18750E+00 0.00000E+00
 -1       251 6.58740E+01 2.18750E+00 0.00000E+00
 -1       252 6.88740E+01 2.18750E+00 0.00000E+00
 -1       253 7.18740E+01 2.18750E+00 0.00000E+00
 -1       254 7.48740E+01 2.18750E+00 0.00000E+00
 -1       255 7.78740E+01 2.18750E+00 0.00000E+00
 -1       256 8.08740E+01 2.18750E+00 0.00000E+00
 -1       257 8.38740E+01 2.18750E+00 0.00000E+00
 -1       258 8.68740E+01 2.18750E+00 0.00000E+00
 -1       259 8.98740E+01 2.18750E+00 0.00000E+00
 -1       260 9.28740E+01 2.18750E+00 0.00000E+00
 -1       261 9.58740E+01 2.18750E+00 0.00000E+00
 -1       262 9.88740E+01 2.18750E+00 0.00000E+00
 -1       263 1.01874E+02 2.18750E+00 0.00000E+00
 -1       264 1.04874E+02 2.18750E+00 0.00000E+00
 -1       265 1.07874E+02 2.18750E+00 0.00000E+00
 -1       266 1.10874E+02 2.18750E+00 0.00000E+00
 -1       267 1.13874E+02 2.18750E+00 0.00000E+00
 -1       268 1.16874E+02 2.18750E+00 0.00000E+00
 -1       269 1.19874E+02 2.18750E+00 0.00000E+00
 -1       270 1.22874E+02 2.18750E+00 0.00000E+00
 -1       271 1.25874E+02 2.18750E+00 0.00000E+00
 -1       272 1.28874E+02 2.18750E+00 0.00000E+00
 -1       273 1.31874E+02 2.18750E+00 0.00000E+00
 -1       274 1.34874E+02 2.18750E+00 0.00000E+00
 -1       275 1.37874E+02 2.18750E+00 0.00000E+00
 -1       276 1.40874E+02 2.18750E+00 0.00000E+00
 -1       277 1.43874E+02 2.18750E+00 0.00000E+00
 -1       278 1.46874E+02 2.18750E+00 0.00000E+00
 -1       279 1.47402E+02 4.42500E+00 0.00000E+00
 -1       280 1.47402E+02 7.37500E+00 0.00000E+00
 -1       281 1.47402E+02 1.03250E+01 0.00000E+00
 -1       282 1.47402E+02 1.32750E+01 0.00000E+00
 -1       283 1.47402E+02 1.61750E+01 0.00000E+00
 -1       284 1.47402E+02 1.91250E+01 0.00000E+00
 -1       285 1.47402E+02 2.20750E+01 0.00000E+00
 -1       286 1.47402E+02 2.50250E+01 0.00000E+00
 -1       287 1.47402E+02 2.79750E+01 0.00000E+00
 -1       288 1.47402E+02 3.09250E+01 0.00000E+00
 -1       289 1.47402E+02 3.38250E+01 0.00000E+00
 -1       290 1.47402E+02 3.67750E+01 0.00000E+00
 -1       291 1.47402E+02 3.97250E+01 0.00000E+00
 -1       292 1.47402E+02 4.26750E+01 0.00000E+00
 -1       293 1.47689E+02 4.51418E+01 0.00000E+00
 -1       294 5.56016E+01 3.68294E+01 0.00000E+00
 -1       295 5.53839E+01 3.50540E+01 0.00000E+00
 -1       296 5.45112E+01 3.35078E+01 0.00000E+00
 -1       297 5.35035E+01 3.21518E+01 0.00000E+00
 -1       298 5.22681E+01 3.08458E+01 0.00000E+00
 -1       299 5.06551E+01 3.00458E+01 0.00000E+00
 -1       300 4.89810E+01 2.95450E+01 0.00000E+00
 -1       301 4.72329E+01 2.94099E+01 0.00000E+00
 -1       302 4.54339E+01 2.95774E+01 0.00000E+00
 -1       303 4.37762E+01 3.02773E+01 0.00000E+00
 -1       304 4.23632E+01 3.12785E+01 0.00000E+00
 -1       305 4.09776E+01 3.24333E+01 0.00000E+00
 -1       306 4.01564E+01 3.40018E+01 0.00000E+00
 -1       307 3.95660E+01 3.55733E+01 0.00000E+00
 -1       308 3.92220E+01 3.73037E+01 0.00000E+00
 -1       309 3.94157E+01 3.90626E+01 0.00000E+00
 -1       310 3.98758E+01 4.06959E+01 0.00000E+00
 -1       311 4.06404E+01 4.21622E+01 0.00000E+00
 -1       312 4.15808E+01 4.35725E+01 0.00000E+00
 -1       313 4.29866E+01 4.45031E+01 0.00000E+00
 -1       314 4.44129E+01 4.53366E+01 0.00000E+00
 -1       315 4.60959E+01 4.57178E+01 0.00000E+00
 -1       316 4.78460E+01 4.58264E+01 0.00000E+00
 -1       317 4.95516E+01 4.56552E+01 0.00000E+00
 -1       318 5.11291E+01 4.50666E+01 0.00000E+00
 -1       319 5.24942E+01 4.41124E+01 0.00000E+00
 -1       320 5.36759E+01 4.29864E+01 0.00000E+00
 -1       321 5.46022E+01 4.16613E+01 0.00000E+00
 -1       322 5.52476E+01 4.01860E+01 0.00000E+00
 -1       323 5.57594E+01 3.85582E+01 0.00000E+00
 -1       324 4.32000E+01 4.79497E+01 0.00000E+00
 -1       325 5.19600E+00 4.11500E+01 0.00000E+00
 -1       326 5.19600E+00 4.41000E+01 0.00000E+00
 -1       327 5.19600E+00 3.52750E+01 0.00000E+00
 -1       328 5.19600E+00 3.23250E+01 0.00000E+00
 -1       329 5.19600E+00 2.93750E+01 0.00000E+00
 -1       330 5.19600E+00 2.64250E+01 0.00000E+00
 -1       331 5.19600E+00 2.34750E+01 0.00000E+00
 -1       332 5.19600E+00 2.05250E+01 0.00000E+00
 -1       333 5.19600E+00 1.76250E+01 0.00000E+00
 -1       334 5.19600E+00 1.46750E+01 0.00000E+00
 -1       335 5.19600E+00 1.17250E+01 0.00000E+00
 -1       336 5.19600E+00 8.77500E+00 0.00000E+00
 -1       337 5.19600E+00 5.82500E+00 0.00000E+00
 -1       338 5.53500E+00 4.00625E+00 0.00000E+00
 -1       339 8.53500E+00 4.00625E+00 0.00000E+00
 -1       340 9.15000E+00 4.48040E+01 0.00000E+00
 -1       341 1.21500E+01 4.48040E+01 0.00000E+00
 -1       342 1.53000E+01 4.48040E+01 0.00000E+00
 -1       343 1.83000E+01 4.48040E+01 0.00000E+00
 -1       344 2.13000E+01 4.48040E+01 0.00000E+00
 -1       345 2.43000E+01 4.48040E+01 0.00000E+00
 -1       346 2.73000E+01 4.48040E+01 0.00000E+00
 -1       347 3.03000E+01 4.48040E+01 0.00000E+00
 -1       348 3.34500E+01 4.48040E+01 0.00000E+00
 -1       349 3.64500E+01 4.48040E+01 0.00000E+00
 -1       350 3.90000E+01 4.48040E+01 0.00000E+00
 -1       351 5.72216E+01 3.75531E+01 0.00000E+00
 -1       352 5.11500E+01 4.64022E+01 0.00000E+00
 -1       353 5.37750E+01 4.62346E+01 0.00000E+00
 -1       354 5.67000E+01 4.57319E+01 0.00000E+00
 -1       355 5.97000E+01 4.57319E+01 0.00000E+00
 -1       356 6.28500E+01 4.57319E+01 0.00000E+00
 -1       357 6.58500E+01 4.57319E+01 0.00000E+00
 -1       358 6.88500E+01 4.57319E+01 0.00000E+00
 -1       359 7.18500E+01 4.57319E+01 0.00000E+00
 -1       360 7.48500E+01 4.57319E+01 0.00000E+00
 -1       361 7.80000E+01 4.57319E+01 0.00000E+00
 -1       362 8.10000E+01 4.57319E+01 0.00000E+00
 -1       363 8.40000E+01 4.57319E+01 0.00000E+00
 -1       364 8.70000E+01 4.57319E+01 0.00000E+00
 -1       365 9.00000E+01 4.57319E+01 0.00000E+00
 -1       366 9.30000E+01 4.57319E+01 0.00000E+00
 -1       367 9.61500E+01 4.57319E+01 0.00000E+00
 -1       368 9.91500E+01 4.57319E+01 0.00000E+00
 -1       369 1.02150E+02 4.57319E+01 0.00000E+00
 -1       370 1.05150E+02 4.57319E+01 0.00000E+00
 -1       371 1.08150E+02 4.57319E+01 0.00000E+00
 -1       372 1.11150E+02 4.57319E+01 0.00000E+00
 -1       373 1.14300E+02 4.57319E+01 0.00000E+00
 -1       374 1.17300E+02 4.57319E+01 0.00000E+00
 -1       375 1.20300E+02 4.57319E+01 0.00000E+00
 -1       376 1.23300E+02 4.57319E+01 0.00000E+00
 -1       377 1.26300E+02 4.57319E+01 0.00000E+00
 -1       378 1.29300E+02 4.57319E+01 0.00000E+00
 -1       379 1.32450E+02 4.57319E+01 0.00000E+00
 -1       380 1.35450E+02 4.57319E+01 0.00000E+00
 -1       381 1.38450E+02 4.57319E+01 0.00000E+00
 -1       382 1.41450E+02 4.57319E+01 0.00000E+00
 -1       383 1.44450E+02 4.57319E+01 0.00000E+00
 -1       384 1.46069E+02 4.54369E+01 0.00000E+00
 -1       385 1.33740E+01 4.78550E+00 0.00000E+00
 -1       386 1.63740E+01 4.78550E+00 0.00000E+00
 -1       387 1.93740E+01 4.78550E+00 0.00000E+00
 -1       388 2.23740E+01 4.78550E+00 0.00000E+00
 -1       389 2.53740E+01 4.78550E+00 0.00000E+00
 -1       390 2.83740E+01 4.78550E+00 0.00000E+00
 -1       391 3.13740E+01 4.78550E+00 0.00000E+00
 -1       392 3.43740E+01 4.78550E+00 0.00000E+00
 -1       393 3.73740E+01 4.78550E+00 0.00000E+00
 -1       394 4.03740E+01 4.78550E+00 0.00000E+00
 -1       395 4.33740E+01 4.78550E+00 0.00000E+00
 -1       396 4.63740E+01 4.78550E+00 0.00000E+00
 -1       397 4.93740E+01 4.78550E+00 0.00000E+00
 -1       398 5.23740E+01 4.78550E+00 0.00000E+00
 -1       399 5.53740E+01 4.78550E+00 0.00000E+00
 -1       400 5.83740E+01 4.78550E+00 0.00000E+00
 -1       401 6.13740E+01 4.78550E+00 0.00000E+00
 -1       402 6.43740E+01 4.78550E+00 0.00000E+00
 -1       403 6.73740E+01 4.78550E+00 0.00000E+00
 -1       404 7.03740E+01 4.78550E+00 0.00000E+00
 -1       405 7.33740E+01 4.78550E+00 0.00000E+00
 -1       406 7.63740E+01 4.78550E+00 0.00000E+00
 -1       407 7.93740E+01 4.78550E+00 0.00000E+00
 -1       408 8.23740E+01 4.78550E+00 0.00000E+00
 -1       409 8.53740E+01 4.78550E+00 0.00000E+00
 -1       410 8.83740E+01 4.78550E+00 0.00000E+00
 -1       411 9.13740E+01 4.78550E+00 0.00000E+00
 -1       412 9.43740E+01 4.78550E+00 0.00000E+00
 -1       413 9.73740E+01 4.78550E+00 0.00000E+00
 -1       414 1.00374E+02 4.78550E+00 0.00000E+00
 -1       415 1.03374E+02 4.78550E+00 0.00000E+00
 -1       416 1.06374E+02 4.78550E+00 0.00000E+00
 -1       417 1.09374E+02 4.78550E+00 0.00000E+00
 -1       418 1.12374E+02 4.78550E+00 0.00000E+00
 -1       419 1.15374E+02 4.78550E+00 0.00000E+00
 -1       420 1.18374E+02 4.78550E+00 0.00000E+00
 -1       421 1.21374E+02 4.78550E+00 0.00000E+00
 -1       422 1.24374E+02 4.78550E+00 0.00000E+00
 -1       423 1.27374E+02 4.78550E+00 0.00000E+00
 -1       424 1.30374E+02 4.78550E+00 0.00000E+00
 -1       425 1.33374E+02 4.78550E+00 0.00000E+00
 -1       426 1.36374E+02 4.78550E+00 0.00000E+00
 -1       427 1.39374E+02 4.78550E+00 0.00000E+00
 -1       428 1.42374E+02 4.78550E+00 0.00000E+00
 -1       429 1.44888E+02 4.60525E+00 0.00000E+00
 -1       430 1.44804E+02 1.18000E+01 0.00000E+00
 -1       431 1.44804E+02 8.85000E+00 0.00000E+00
 -1       432 1.44804E+02 1.47000E+01 0.00000E+00
 -1       433 1.44804E+02 1.76500E+01 0.00000E+00
 -1       434 1.44804E+02 2.06000E+01 0.00000E+00
 -1       435 1.44804E+02 2.35500E+01 0.00000E+00
 -1       436 1.44804E+02 2.65000E+01 0.00000E+00
 -1       437 1.44804E+02 2.94500E+01 0.00000E+00
 -1       438 1.44804E+02 3.23500E+01 0.00000E+00
 -1       439 1.44804E+02 3.53000E+01 0.00000E+00
 -1       440 1.44804E+02 3.82500E+01 0.00000E+00
 -1       441 1.44804E+02 4.12000E+01 0.00000E+00
 -1       442 1.09545E+01 4.39587E+00 0.00000E+00
 -1       443 5.61493E+01 3.36026E+01 0.00000E+00
 -1       444 5.38883E+01 3.05505E+01 0.00000E+00
 -1       445 5.19600E+00 3.82125E+01 0.00000E+00
 -1       446 5.20747E+01 2.92095E+01 0.00000E+00
 -1       447 5.02375E+01 2.83931E+01 0.00000E+00
 -1       448 4.82069E+01 2.81851E+01 0.00000E+00
 -1       449 4.61743E+01 2.77859E+01 0.00000E+00
 -1       450 4.38728E+01 2.81929E+01 0.00000E+00
 -1       451 4.21266E+01 2.94468E+01 0.00000E+00
 -1       452 4.07410E+01 3.06017E+01 0.00000E+00
 -1       453 3.91960E+01 3.24997E+01 0.00000E+00
 -1       454 3.86478E+01 3.43317E+01 0.00000E+00
 -1       455 3.81227E+01 3.61858E+01 0.00000E+00
 -1       456 3.76973E+01 3.83618E+01 0.00000E+00
 -1       457 3.83175E+01 4.02534E+01 0.00000E+00
 -1       458 3.88859E+01 4.21445E+01 0.00000E+00
 -1       459 4.15220E+01 4.51885E+01 0.00000E+00
 -1       460 4.29483E+01 4.60220E+01 0.00000E+00
 -1       461 5.25151E+01 4.54480E+01 0.00000E+00
 -1       462 5.40949E+01 4.46091E+01 0.00000E+00
 -1       463 5.52014E+01 4.30665E+01 0.00000E+00
 -1       464 5.62660E+01 4.15104E+01 0.00000E+00
 -1       465 5.68200E+01 3.97860E+01 0.00000E+00
 -1       466 5.52495E+01 3.19068E+01 0.00000E+00
 -1       467 5.70039E+01 3.57777E+01 0.00000E+00
 -1       468 4.88250E+01 4.65698E+01 0.00000E+00
 -1       469 3.97493E+01 4.35333E+01 0.00000E+00
 -1       470 7.79400E+00 3.08500E+01 0.00000E+00
 -1       471 7.79400E+00 3.38000E+01 0.00000E+00
 -1       472 7.79400E+00 2.49500E+01 0.00000E+00
 -1       473 7.79400E+00 2.20000E+01 0.00000E+00
 -1       474 7.79400E+00 1.91000E+01 0.00000E+00
 -1       475 7.79400E+00 1.61500E+01 0.00000E+00
 -1       476 7.79400E+00 1.32000E+01 0.00000E+00
 -1       477 7.79400E+00 1.02500E+01 0.00000E+00
 -1       478 7.79400E+00 7.30000E+00 0.00000E+00
 -1       479 8.16450E+00 5.65312E+00 0.00000E+00
 -1       480 5.69418E+01 4.31149E+01 0.00000E+00
 -1       481 1.06500E+01 4.22060E+01 0.00000E+00
 -1       482 5.71404E+01 3.19901E+01 0.00000E+00
 -1       483 5.87088E+01 3.89732E+01 0.00000E+00
 -1       484 1.38000E+01 4.22060E+01 0.00000E+00
 -1       485 1.68000E+01 4.22060E+01 0.00000E+00
 -1       486 1.98000E+01 4.22060E+01 0.00000E+00
 -1       487 2.28000E+01 4.22060E+01 0.00000E+00
 -1       488 2.58000E+01 4.22060E+01 0.00000E+00
 -1       489 2.88000E+01 4.22060E+01 0.00000E+00
 -1       490 3.19500E+01 4.22060E+01 0.00000E+00
 -1       491 6.12750E+01 4.31339E+01 0.00000E+00
 -1       492 6.42750E+01 4.31339E+01 0.00000E+00
 -1       493 6.72750E+01 4.31339E+01 0.00000E+00
 -1       494 7.02750E+01 4.31339E+01 0.00000E+00
 -1       495 7.32750E+01 4.31339E+01 0.00000E+00
 -1       496 7.64250E+01 4.31339E+01 0.00000E+00
 -1       497 7.94250E+01 4.31339E+01 0.00000E+00
 -1       498 8.24250E+01 4.31339E+01 0.00000E+00
 -1       499 8.54250E+01 4.31339E+01 0.00000E+00
 -1       500 8.84250E+01 4.31339E+01 0.00000E+00
 -1       501 9.14250E+01 4.31339E+01 0.00000E+00
 -1       502 9.45750E+01 4.31339E+01 0.00000E+00
 -1       503 9.75750E+01 4.31339E+01 0.00000E+00
 -1       504 1.00575E+02 4.31339E+01 0.00000E+00
 -1       505 1.03575E+02 4.31339E+01 0.00000E+00
 -1       506 1.06575E+02 4.31339E+01 0.00000E+00
 -1       507 1.09575E+02 4.31339E+01 0.00000E+00
 -1       508 1.12725E+02 4.31339E+01 0.00000E+00
 -1       509 1.15725E+02 4.31339E+01 0.00000E+00
 -1       510 1.18725E+02 4.31339E+01 0.00000E+00
 -1       511 1.21725E+02 4.31339E+01 0.00000E+00
 -1       512 1.24725E+02 4.31339E+01 0.00000E+00
 -1       513 1.27725E+02 4.31339E+01 0.00000E+00
 -1       514 1.30875E+02 4.31339E+01 0.00000E+00
 -1       515 1.33875E+02 4.31339E+01 0.00000E+00
 -1       516 1.36875E+02 4.31339E+01 0.00000E+00
 -1       517 1.39875E+02 4.31339E+01 0.00000E+00
 -1       518 1.42875E+02 4.31339E+01 0.00000E+00
 -1       519 2.08740E+01 7.38350E+00 0.00000E+00
 -1       520 1.48740E+01 7.38350E+00 0.00000E+00
 -1       521 2.38740E+01 7.38350E+00 0.00000E+00
 -1       522 2.68740E+01 7.38350E+00 0.00000E+00
 -1       523 2.98740E+01 7.38350E+00 0.00000E+00
 -1       524 3.28740E+01 7.38350E+00 0.00000E+00
 -1       525 3.58740E+01 7.38350E+00 0.00000E+00
 -1       526 3.88740E+01 7.38350E+00 0.00000E+00
 -1       527 4.18740E+01 7.38350E+00 0.00000E+00
 -1       528 4.48740E+01 7.38350E+00 0.00000E+00
 -1       529 4.78740E+01 7.38350E+00 0.00000E+00
 -1       530 5.08740E+01 7.38350E+00 0.00000E+00
 -1       531 5.38740E+01 7.38350E+00 0.00000E+00
 -1       532 5.68740E+01 7.38350E+00 0.00000E+00
 -1       533 5.98740E+01 7.38350E+00 0.00000E+00
 -1       534 6.28740E+01 7.38350E+00 0.00000E+00
 -1       535 6.58740E+01 7.38350E+00 0.00000E+00
 -1       536 6.88740E+01 7.38350E+00 0.00000E+00
 -1       537 7.18740E+01 7.38350E+00 0.00000E+00
 -1       538 7.48740E+01 7.38350E+00 0.00000E+00
 -1       539 7.78740E+01 7.38350E+00 0.00000E+00
 -1       540 8.08740E+01 7.38350E+00 0.00000E+00
 -1       541 8.38740E+01 7.38350E+00 0.00000E+00
 -1       542 8.68740E+01 7.38350E+00 0.00000E+00
 -1       543 8.98740E+01 7.38350E+00 0.00000E+00
 -1       544 9.28740E+01 7.38350E+00 0.00000E+00
 -1       545 9.58740E+01 7.38350E+00 0.00000E+00
 -1       546 9.88740E+01 7.38350E+00 0.00000E+00
 -1       547 1.01874E+02 7.38350E+00 0.00000E+00
 -1       548 1.04874E+02 7.38350E+00 0.00000E+00
 -1       549 1.07874E+02 7.38350E+00 0.00000E+00
 -1       550 1.10874E+02 7.38350E+00 0.00000E+00
 -1       551 1.13874E+02 7.38350E+00 0.00000E+00
 -1       552 1.16874E+02 7.38350E+00 0.00000E+00
 -1       553 1.19874E+02 7.38350E+00 0.00000E+00
 -1       554 1.22874E+02 7.38350E+00 0.00000E+00
 -1       555 1.25874E+02 7.38350E+00 0.00000E+00
 -1       556 1.28874E+02 7.38350E+00 0.00000E+00
 -1       557 1.31874E+02 7.38350E+00 0.00000E+00
 -1       558 1.34874E+02 7.38350E+00 0.00000E+00
 -1       559 1.37874E+02 7.38350E+00 0.00000E+00
 -1       560 1.40874E+02 7.38350E+00 0.00000E+00
 -1       561 1.42206E+02 1.61750E+01 0.00000E+00
 -1       562 1.42206E+02 1.32750E+01 0.00000E+00
 -1       563 1.42206E+02 1.03250E+01 0.00000E+00
 -1       564 5.39016E+01 2.86357E+01 0.00000E+00
 -1       565 1.42206E+02 1.91250E+01 0.00000E+00
 -1       566 1.42206E+02 2.20750E+01 0.00000E+00
 -1       567 1.42206E+02 2.50250E+01 0.00000E+00
 -1       568 1.42206E+02 2.79750E+01 0.00000E+00
 -1       569 1.42206E+02 3.08750E+01 0.00000E+00
 -1       570 1.42206E+02 3.38250E+01 0.00000E+00
 -1       571 1.42206E+02 3.67750E+01 0.00000E+00
 -1       572 1.42206E+02 3.97250E+01 0.00000E+00
 -1       573 1.44820E+02 4.41968E+01 0.00000E+00
 -1       574 1.78740E+01 7.38350E+00 0.00000E+00
 -1       575 5.80961E+01 4.11472E+01 0.00000E+00
 -1       576 3.69592E+01 4.16927E+01 0.00000E+00
 -1       577 4.18038E+01 2.71545E+01 0.00000E+00
 -1       578 5.82000E+01 4.36817E+01 0.00000E+00
 -1       579 5.80169E+01 3.41242E+01 0.00000E+00
 -1       580 7.79400E+00 2.79000E+01 0.00000E+00
 -1       581 5.57204E+01 3.00730E+01 0.00000E+00
 -1       582 3.72788E+01 3.29240E+01 0.00000E+00
 -1       583 5.19207E+01 2.70808E+01 0.00000E+00