    1C
    1UUSER                                                              
    1UDATE              27.october.2022                                 
    1UTIME              01:13:24                                        
    1UHOST                                                              
    1UPGM               CalculiX                                        
    1UVERSION           Version 2.17                             
    1UCOMPILETIME       Thu Jul 23 21:43:50 CEST 2020                    
    1UDIR                                                               
    1UDBN                                                               
    1UMAT    1SOLIDMATERIAL                                             
    2C                          4308                                     1
 -1         1 7.09091E+01 2.10734E+01 0.00000E+00
 -1         2 8.36067E+01 1.70067E+01 0.00000E+00
 -1         3 1.50000E+02 0.00000E+00 0.00000E+00
 -1         4 1.50000E+02 5.00000E+01 0.00000E+00
 -1         5 0.00000E+00 0.00000E+00 0.00000E+00
 -1         6 0.00000E+00 5.00000E+01 0.00000E+00
 -1         7 0.00000E+00 4.70500E+01 0.00000E+00
 -1         8 0.00000E+00 4.41000E+01 0.00000E+00
 -1         9 0.00000E+00 4.11500E+01 0.00000E+00
 -1        10 0.00000E+00 3.82000E+01 0.00000E+00
 -1        11 0.00000E+00 3.52500E+01 0.00000E+00
 -1        12 0.00000E+00 3.23500E+01 0.00000E+00
 -1        13 0.00000E+00 2.94000E+01 0.00000E+00
 -1        14 0.00000E+00 2.64500E+01 0.00000E+00
 -1        15 0.00000E+00 2.35000E+01 0.00000E+00
 -1        16 0.00000E+00 2.05500E+01 0.00000E+00
 -1        17 0.00000E+00 1.76000E+01 0.00000E+00
 -1        18 0.00000E+00 1.47000E+01 0.00000E+00
 -1        19 0.00000E+00 1.17500E+01 0.00000E+00
 -1        20 0.00000E+00 8.80000E+00 0.00000E+00
 -1        21 0.00000E+00 5.85000E+00 0.00000E+00
 -1        22 0.00000E+00 2.90000E+00 0.00000E+00
 -1        23 3.15000E+00 5.00000E+01 0.00000E+00
 -1        24 6.15000E+00 5.00000E+01 0.00000E+00
 -1        25 9.15000E+00 5.00000E+01 0.00000E+00
 -1        26 1.21500E+01 5.00000E+01 0.00000E+00
 -1        27 1.51500E+01 5.00000E+01 0.00000E+00
 -1        28 1.81500E+01 5.00000E+01 0.00000E+00
 -1        29 2.11500E+01 5.00000E+01 0.00000E+00
 -1        30 2.41500E+01 5.00000E+01 0.00000E+00
 -1        31 2.71500E+01 5.00000E+01 0.00000E+00
 -1        32 3.01500E+01 5.00000E+01 0.00000E+00
 -1        33 3.31500E+01 5.00000E+01 0.00000E+00
 -1        34 3.61500E+01 5.00000E+01 0.00000E+00
 -1        35 3.91500E+01 5.00000E+01 0.00000E+00
 -1        36 4.21500E+01 5.00000E+01 0.00000E+00
 -1        37 4.51500E+01 5.00000E+01 0.00000E+00
 -1        38 4.81500E+01 5.00000E+01 0.00000E+00
 -1        39 5.11500E+01 5.00000E+01 0.00000E+00
 -1        40 5.41500E+01 5.00000E+01 0.00000E+00
 -1        41 5.71500E+01 5.00000E+01 0.00000E+00
 -1        42 6.01500E+01 5.00000E+01 0.00000E+00
 -1        43 6.31500E+01 5.00000E+01 0.00000E+00
 -1        44 6.61500E+01 5.00000E+01 0.00000E+00
 -1        45 6.91500E+01 5.00000E+01 0.00000E+00
 -1        46 7.21500E+01 5.00000E+01 0.00000E+00
 -1        47 7.51500E+01 5.00000E+01 0.00000E+00
 -1        48 7.81500E+01 5.00000E+01 0.00000E+00
 -1        49 8.11500E+01 5.00000E+01 0.00000E+00
 -1        50 8.41500E+01 5.00000E+01 0.00000E+00
 -1        51 8.71500E+01 5.00000E+01 0.00000E+00
 -1        52 9.01500E+01 5.00000E+01 0.00000E+00
 -1        53 9.31500E+01 5.00000E+01 0.00000E+00
 -1        54 9.61500E+01 5.00000E+01 0.00000E+00
 -1        55 9.91500E+01 5.00000E+01 0.00000E+00
 -1        56 1.02150E+02 5.00000E+01 0.00000E+00
 -1        57 1.05150E+02 5.00000E+01 0.00000E+00
 -1        58 1.08150E+02 5.00000E+01 0.00000E+00
 -1        59 1.11150E+02 5.00000E+01 0.00000E+00
 -1        60 1.14150E+02 5.00000E+01 0.00000E+00
 -1        61 1.17150E+02 5.00000E+01 0.00000E+00
 -1        62 1.20150E+02 5.00000E+01 0.00000E+00
 -1        63 1.23150E+02 5.00000E+01 0.00000E+00
 -1        64 1.26150E+02 5.00000E+01 0.00000E+00
 -1        65 1.29150E+02 5.00000E+01 0.00000E+00
 -1        66 1.32150E+02 5.00000E+01 0.00000E+00
 -1        67 1.35150E+02 5.00000E+01 0.00000E+00
 -1        68 1.38150E+02 5.00000E+01 0.00000E+00
 -1        69 1.41150E+02 5.00000E+01 0.00000E+00
 -1        70 1.44150E+02 5.00000E+01 0.00000E+00
 -1        71 1.47150E+02 5.00000E+01 0.00000E+00
 -1        72 3.15000E+00 0.00000E+00 0.00000E+00
 -1        73 6.15000E+00 0.00000E+00 0.00000E+00
 -1        74 9.15000E+00 0.00000E+00 0.00000E+00
 -1        75 1.21500E+01 0.00000E+00 0.00000E+00
 -1        76 1.51500E+01 0.00000E+00 0.00000E+00
 -1        77 1.81500E+01 0.00000E+00 0.00000E+00
 -1        78 2.11500E+01 0.00000E+00 0.00000E+00
 -1        79 2.41500E+01 0.00000E+00 0.00000E+00
 -1        80 2.71500E+01 0.00000E+00 0.00000E+00
 -1        81 3.01500E+01 0.00000E+00 0.00000E+00
 -1        82 3.31500E+01 0.00000E+00 0.00000E+00
 -1        83 3.61500E+01 0.00000E+00 0.00000E+00
 -1        84 3.91500E+01 0.00000E+00 0.00000E+00
 -1        85 4.21500E+01 0.00000E+00 0.00000E+00
 -1        86 4.51500E+01 0.00000E+00 0.00000E+00
 -1        87 4.81500E+01 0.00000E+00 0.00000E+00
 -1        88 5.11500E+01 0.00000E+00 0.00000E+00
 -1        89 5.41500E+01 0.00000E+00 0.00000E+00
 -1        90 5.71500E+01 0.00000E+00 0.00000E+00
 -1        91 6.01500E+01 0.00000E+00 0.00000E+00
 -1        92 6.31500E+01 0.00000E+00 0.00000E+00
 -1        93 6.61500E+01 0.00000E+00 0.00000E+00
 -1        94 6.91500E+01 0.00000E+00 0.00000E+00
 -1        95 7.21500E+01 0.00000E+00 0.00000E+00
 -1        96 7.50000E+01 0.00000E+00 0.00000E+00
 -1        97 7.80000E+01 0.00000E+00 0.00000E+00
 -1        98 8.10000E+01 0.00000E+00 0.00000E+00
 -1        99 8.40000E+01 0.00000E+00 0.00000E+00
 -1       100 8.70000E+01 0.00000E+00 0.00000E+00
 -1       101 9.00000E+01 0.00000E+00 0.00000E+00
 -1       102 9.30000E+01 0.00000E+00 0.00000E+00
 -1       103 9.60000E+01 0.00000E+00 0.00000E+00
 -1       104 9.90000E+01 0.00000E+00 0.00000E+00
 -1       105 1.02000E+02 0.00000E+00 0.00000E+00
 -1       106 1.05000E+02 0.00000E+00 0.00000E+00
 -1       107 1.08000E+02 0.00000E+00 0.00000E+00
 -1       108 1.11000E+02 0.00000E+00 0.00000E+00
 -1       109 1.14000E+02 0.00000E+00 0.00000E+00
 -1       110 1.17000E+02 0.00000E+00 0.00000E+00
 -1       111 1.20000E+02 0.00000E+00 0.00000E+00
 -1       112 1.23000E+02 0.00000E+00 0.00000E+00
 -1       113 1.26000E+02 0.00000E+00 0.00000E+00
 -1       114 1.29000E+02 0.00000E+00 0.00000E+00
 -1       115 1.32000E+02 0.00000E+00 0.00000E+00
 -1       116 1.35000E+02 0.00000E+00 0.00000E+00
 -1       117 1.38000E+02 0.00000E+00 0.00000E+00
 -1       118 1.41000E+02 0.00000E+00 0.00000E+00
 -1       119 1.44000E+02 0.00000E+00 0.00000E+00
 -1       120 1.47000E+02 0.00000E+00 0.00000E+00
 -1       121 1.50000E+02 2.95000E+00 0.00000E+00
 -1       122 1.50000E+02 5.90000E+00 0.00000E+00
 -1       123 1.50000E+02 8.85000E+00 0.00000E+00
 -1       124 1.50000E+02 1.18000E+01 0.00000E+00
 -1       125 1.50000E+02 1.47500E+01 0.00000E+00
 -1       126 1.50000E+02 1.76500E+01 0.00000E+00
 -1       127 1.50000E+02 2.06000E+01 0.00000E+00
 -1       128 1.50000E+02 2.35500E+01 0.00000E+00
 -1       129 1.50000E+02 2.65000E+01 0.00000E+00
 -1       130 1.50000E+02 2.94500E+01 0.00000E+00
 -1       131 1.50000E+02 3.24000E+01 0.00000E+00
 -1       132 1.50000E+02 3.53000E+01 0.00000E+00
 -1       133 1.50000E+02 3.82500E+01 0.00000E+00
 -1       134 1.50000E+02 4.12000E+01 0.00000E+00
 -1       135 1.50000E+02 4.41500E+01 0.00000E+00
 -1       136 1.50000E+02 4.71000E+01 0.00000E+00
 -1       137 8.34590E+01 1.55765E+01 0.00000E+00
 -1       138 8.30388E+01 1.42449E+01 0.00000E+00
 -1       139 8.23158E+01 1.29563E+01 0.00000E+00
 -1       140 8.13099E+01 1.18222E+01 0.00000E+00
 -1       141 8.01328E+01 1.09597E+01 0.00000E+00
 -1       142 7.87278E+01 1.03358E+01 0.00000E+00
 -1       143 7.73245E+01 1.00436E+01 0.00000E+00
 -1       144 7.58303E+01 1.00499E+01 0.00000E+00
 -1       145 7.44914E+01 1.03340E+01 0.00000E+00
 -1       146 7.31614E+01 1.09133E+01 0.00000E+00
 -1       147 7.19477E+01 1.17823E+01 0.00000E+00
 -1       148 7.09750E+01 1.28493E+01 0.00000E+00
 -1       149 7.02655E+01 1.40421E+01 0.00000E+00
 -1       150 6.97650E+01 1.55262E+01 0.00000E+00
 -1       151 6.96067E+01 1.70252E+01 0.00000E+00
 -1       152 6.97630E+01 1.84779E+01 0.00000E+00
 -1       153 7.01916E+01 1.98080E+01 0.00000E+00
 -1       154 7.18658E+01 2.21569E+01 0.00000E+00
 -1       155 7.31011E+01 2.30657E+01 0.00000E+00
 -1       156 7.45080E+01 2.36847E+01 0.00000E+00
 -1       157 7.58985E+01 2.39708E+01 0.00000E+00
 -1       158 7.73049E+01 2.39718E+01 0.00000E+00
 -1       159 7.86967E+01 2.36874E+01 0.00000E+00
 -1       160 8.00883E+01 2.30795E+01 0.00000E+00
 -1       161 8.12782E+01 2.22199E+01 0.00000E+00
 -1       162 8.22341E+01 2.11699E+01 0.00000E+00
 -1       163 8.29901E+01 1.98794E+01 0.00000E+00
 -1       164 8.34415E+01 1.85183E+01 0.00000E+00
 -1       165 2.59800E+00 4.55750E+01 0.00000E+00
 -1       166 2.59800E+00 4.26250E+01 0.00000E+00
 -1       167 2.59800E+00 3.96750E+01 0.00000E+00
 -1       168 2.59800E+00 3.67250E+01 0.00000E+00
 -1       169 2.59800E+00 3.38250E+01 0.00000E+00
 -1       170 2.59800E+00 3.08750E+01 0.00000E+00
 -1       171 2.59800E+00 2.79250E+01 0.00000E+00
 -1       172 2.59800E+00 2.49750E+01 0.00000E+00
 -1       173 2.59800E+00 2.20250E+01 0.00000E+00
 -1       174 2.59800E+00 1.90750E+01 0.00000E+00
 -1       175 2.59800E+00 1.61750E+01 0.00000E+00
 -1       176 2.59800E+00 1.32250E+01 0.00000E+00
 -1       177 2.59800E+00 1.02750E+01 0.00000E+00
 -1       178 2.59800E+00 7.32500E+00 0.00000E+00
 -1       179 2.59800E+00 4.37500E+00 0.00000E+00
 -1       180 2.87400E+00 2.18750E+00 0.00000E+00
 -1       181 4.65000E+00 4.74020E+01 0.00000E+00
 -1       182 7.65000E+00 4.74020E+01 0.00000E+00
 -1       183 1.06500E+01 4.74020E+01 0.00000E+00
 -1       184 1.36500E+01 4.74020E+01 0.00000E+00
 -1       185 1.66500E+01 4.74020E+01 0.00000E+00
 -1       186 1.96500E+01 4.74020E+01 0.00000E+00
 -1       187 2.26500E+01 4.74020E+01 0.00000E+00
 -1       188 2.56500E+01 4.74020E+01 0.00000E+00
 -1       189 2.86500E+01 4.74020E+01 0.00000E+00
 -1       190 3.16500E+01 4.74020E+01 0.00000E+00
 -1       191 3.46500E+01 4.74020E+01 0.00000E+00
 -1       192 3.76500E+01 4.74020E+01 0.00000E+00
 -1       193 4.06500E+01 4.74020E+01 0.00000E+00
 -1       194 4.36500E+01 4.74020E+01 0.00000E+00
 -1       195 4.66500E+01 4.74020E+01 0.00000E+00
 -1       196 4.96500E+01 4.74020E+01 0.00000E+00
 -1       197 5.26500E+01 4.74020E+01 0.00000E+00
 -1       198 5.56500E+01 4.74020E+01 0.00000E+00
 -1       199 5.86500E+01 4.74020E+01 0.00000E+00
 -1       200 6.16500E+01 4.74020E+01 0.00000E+00
 -1       201 6.46500E+01 4.74020E+01 0.00000E+00
 -1       202 6.76500E+01 4.74020E+01 0.00000E+00
 -1       203 7.06500E+01 4.74020E+01 0.00000E+00
 -1       204 7.36500E+01 4.74020E+01 0.00000E+00
 -1       205 7.66500E+01 4.74020E+01 0.00000E+00
 -1       206 7.96500E+01 4.74020E+01 0.00000E+00
 -1       207 8.26500E+01 4.74020E+01 0.00000E+00
 -1       208 8.56500E+01 4.74020E+01 0.00000E+00
 -1       209 8.86500E+01 4.74020E+01 0.00000E+00
 -1       210 9.16500E+01 4.74020E+01 0.00000E+00
 -1       211 9.46500E+01 4.74020E+01 0.00000E+00
 -1       212 9.76500E+01 4.74020E+01 0.00000E+00
 -1       213 1.00650E+02 4.74020E+01 0.00000E+00
 -1       214 1.03650E+02 4.74020E+01 0.00000E+00
 -1       215 1.06650E+02 4.74020E+01 0.00000E+00
 -1       216 1.09650E+02 4.74020E+01 0.00000E+00
 -1       217 1.12650E+02 4.74020E+01 0.00000E+00
 -1       218 1.15650E+02 4.74020E+01 0.00000E+00
 -1       219 1.18650E+02 4.74020E+01 0.00000E+00
 -1       220 1.21650E+02 4.74020E+01 0.00000E+00
 -1       221 1.24650E+02 4.74020E+01 0.00000E+00
 -1       222 1.27650E+02 4.74020E+01 0.00000E+00
 -1       223 1.30650E+02 4.74020E+01 0.00000E+00
 -1       224 1.33650E+02 4.74020E+01 0.00000E+00
 -1       225 1.36650E+02 4.74020E+01 0.00000E+00
 -1       226 1.39650E+02 4.74020E+01 0.00000E+00
 -1       227 1.42650E+02 4.74020E+01 0.00000E+00
 -1       228 1.45650E+02 4.74020E+01 0.00000E+00
 -1       229 5.87400E+00 2.18750E+00 0.00000E+00
 -1       230 8.87400E+00 2.18750E+00 0.00000E+00
 -1       231 1.18740E+01 2.18750E+00 0.00000E+00
 -1       232 1.48740E+01 2.18750E+00 0.00000E+00
 -1       233 1.78740E+01 2.18750E+00 0.00000E+00
 -1       234 2.08740E+01 2.18750E+00 0.00000E+00
 -1       235 2.38740E+01 2.18750E+00 0.00000E+00
 -1       236 2.68740E+01 2.18750E+00 0.00000E+00
 -1       237 2.98740E+01 2.18750E+00 0.00000E+00
 -1       238 3.28740E+01 2.18750E+00 0.00000E+00
 -1       239 3.58740E+01 2.18750E+00 0.00000E+00
 -1       240 3.88740E+01 2.18750E+00 0.00000E+00
 -1       241 4.18740E+01 2.18750E+00 0.00000E+00
 -1       242 4.48740E+01 2.18750E+00 0.00000E+00
 -1       243 4.78740E+01 2.18750E+00 0.00000E+00
 -1       244 5.08740E+01 2.18750E+00 0.00000E+00
 -1       245 5.38740E+01 2.18750E+00 0.00000E+00
 -1       246 5.68740E+01 2.18750E+00 0.00000E+00
 -1       247 5.98740E+01 2.18750E+00 0.00000E+00
 -1       248 6.28740E+01 2.18750E+00 0.00000E+00
 -1       249 6.58740E+01 2.18750E+00 0.00000E+00
 -1       250 6.88740E+01 2.18750E+00 0.00000E+00
 -1       251 7.18740E+01 2.18750E+00 0.00000E+00
 -1       252 7.47240E+01 2.18750E+00 0.00000E+00
 -1       253 7.77240E+01 2.18750E+00 0.00000E+00
 -1       254 8.07240E+01 2.18750E+00 0.00000E+00
 -1       255 8.37240E+01 2.18750E+00 0.00000E+00
 -1       256 8.67240E+01 2.18750E+00 0.00000E+00
 -1       257 8.97240E+01 2.18750E+00 0.00000E+00
 -1       258 9.27240E+01 2.18750E+00 0.00000E+00
 -1       259 9.57240E+01 2.18750E+00 0.00000E+00
 -1       260 9.87240E+01 2.18750E+00 0.00000E+00
 -1       261 1.01724E+02 2.18750E+00 0.00000E+00
 -1       262 1.04724E+02 2.18750E+00 0.00000E+00
 -1       263 1.07724E+02 2.18750E+00 0.00000E+00
 -1       264 1.10724E+02 2.18750E+00 0.00000E+00
 -1       265 1.13724E+02 2.18750E+00 0.00000E+00
 -1       266 1.16724E+02 2.18750E+00 0.00000E+00
 -1       267 1.19724E+02 2.18750E+00 0.00000E+00
 -1       268 1.22724E+02 2.18750E+00 0.00000E+00
 -1       269 1.25724E+02 2.18750E+00 0.00000E+00
 -1       270 1.28724E+02 2.18750E+00 0.00000E+00
 -1       271 1.31724E+02 2.18750E+00 0.00000E+00
 -1       272 1.34724E+02 2.18750E+00 0.00000E+00
 -1       273 1.37724E+02 2.18750E+00 0.00000E+00
 -1       274 1.40724E+02 2.18750E+00 0.00000E+00
 -1       275 1.43724E+02 2.18750E+00 0.00000E+00
 -1       276 1.46724E+02 2.18750E+00 0.00000E+00
 -1       277 1.47402E+02 4.42500E+00 0.00000E+00
 -1       278 1.47402E+02 7.37500E+00 0.00000E+00
 -1       279 1.47402E+02 1.03250E+01 0.00000E+00
 -1       280 1.47402E+02 1.32750E+01 0.00000E+00
 -1       281 1.47402E+02 1.61750E+01 0.00000E+00
 -1       282 1.47402E+02 1.91250E+01 0.00000E+00
 -1       283 1.47402E+02 2.20750E+01 0.00000E+00
 -1       284 1.47402E+02 2.50250E+01 0.00000E+00
 -1       285 1.47402E+02 2.79750E+01 0.00000E+00
 -1       286 1.47402E+02 3.09250E+01 0.00000E+00
 -1       287 1.47402E+02 3.38250E+01 0.00000E+00
 -1       288 1.47402E+02 3.67750E+01 0.00000E+00
 -1       289 1.47402E+02 3.97250E+01 0.00000E+00
 -1       290 1.47402E+02 4.26750E+01 0.00000E+00
 -1       291 1.46526E+02 4.50385E+01 0.00000E+00
 -1       292 8.48222E+01 1.61585E+01 0.00000E+00
 -1       293 8.44051E+01 1.45458E+01 0.00000E+00
 -1       294 8.37346E+01 1.30073E+01 0.00000E+00
 -1       295 8.29079E+01 1.14180E+01 0.00000E+00
 -1       296 8.14874E+01 1.03454E+01 0.00000E+00
 -1       297 7.99563E+01 9.46313E+00 0.00000E+00
 -1       298 7.82733E+01 9.00279E+00 0.00000E+00
 -1       299 7.65716E+01 8.66681E+00 0.00000E+00
 -1       300 7.49093E+01 9.00593E+00 0.00000E+00
 -1       301 7.33088E+01 9.43528E+00 0.00000E+00
 -1       302 7.18487E+01 1.03621E+01 0.00000E+00
 -1       303 7.05654E+01 1.14990E+01 0.00000E+00
 -1       304 6.95782E+01 1.28259E+01 0.00000E+00
 -1       305 6.85488E+01 1.42897E+01 0.00000E+00
 -1       306 6.82302E+01 1.61219E+01 0.00000E+00
 -1       307 6.83961E+01 1.78902E+01 0.00000E+00
 -1       308 6.88233E+01 1.95148E+01 0.00000E+00
 -1       309 6.93499E+01 2.11213E+01 0.00000E+00
 -1       310 7.04786E+01 2.24176E+01 0.00000E+00
 -1       311 7.16657E+01 2.37229E+01 0.00000E+00
 -1       312 7.32488E+01 2.46383E+01 0.00000E+00
 -1       313 7.49589E+01 2.50153E+01 0.00000E+00
 -1       314 7.66009E+01 2.51837E+01 0.00000E+00
 -1       315 7.82435E+01 2.50175E+01 0.00000E+00
 -1       316 7.99114E+01 2.45712E+01 0.00000E+00
 -1       317 8.14423E+01 2.37004E+01 0.00000E+00
 -1       318 8.26526E+01 2.25111E+01 0.00000E+00
 -1       319 8.38028E+01 2.12222E+01 0.00000E+00
 -1       320 8.43666E+01 1.95805E+01 0.00000E+00
 -1       321 8.48959E+01 1.79124E+01 0.00000E+00
 -1       322 5.19600E+00 4.11500E+01 0.00000E+00
 -1       323 5.19600E+00 4.41000E+01 0.00000E+00
 -1       324 5.19600E+00 3.52750E+01 0.00000E+00
 -1       325 5.19600E+00 3.23250E+01 0.00000E+00
 -1       326 5.19600E+00 2.93750E+01 0.00000E+00
 -1       327 5.19600E+00 2.64250E+01 0.00000E+00
 -1       328 5.19600E+00 2.34750E+01 0.00000E+00
 -1       329 5.19600E+00 2.05250E+01 0.00000E+00
 -1       330 5.19600E+00 1.76250E+01 0.00000E+00
 -1       331 5.19600E+00 1.46750E+01 0.00000E+00
 -1       332 5.19600E+00 1.17250E+01 0.00000E+00
 -1       333 5.19600E+00 8.77500E+00 0.00000E+00
 -1       334 5.19600E+00 5.82500E+00 0.00000E+00
 -1       335 5.53500E+00 4.00625E+00 0.00000E+00
 -1       336 8.53500E+00 4.00625E+00 0.00000E+00
 -1       337 9.15000E+00 4.48040E+01 0.00000E+00
 -1       338 1.21500E+01 4.48040E+01 0.00000E+00
 -1       339 1.51500E+01 4.48040E+01 0.00000E+00
 -1       340 1.81500E+01 4.48040E+01 0.00000E+00
 -1       341 2.11500E+01 4.48040E+01 0.00000E+00
 -1       342 2.41500E+01 4.48040E+01 0.00000E+00
 -1       343 2.71500E+01 4.48040E+01 0.00000E+00
 -1       344 3.01500E+01 4.48040E+01 0.00000E+00
 -1       345 3.31500E+01 4.48040E+01 0.00000E+00
 -1       346 3.61500E+01 4.48040E+01 0.00000E+00
 -1       347 3.91500E+01 4.48040E+01 0.00000E+00
 -1       348 4.21500E+01 4.48040E+01 0.00000E+00
 -1       349 4.51500E+01 4.48040E+01 0.00000E+00
 -1       350 4.81500E+01 4.48040E+01 0.00000E+00
 -1       351 5.11500E+01 4.48040E+01 0.00000E+00
 -1       352 5.41500E+01 4.48040E+01 0.00000E+00
 -1       353 5.71500E+01 4.48040E+01 0.00000E+00
 -1       354 6.01500E+01 4.48040E+01 0.00000E+00
 -1       355 6.31500E+01 4.48040E+01 0.00000E+00
 -1       356 6.61500E+01 4.48040E+01 0.00000E+00
 -1       357 6.91500E+01 4.48040E+01 0.00000E+00
 -1       358 7.21500E+01 4.48040E+01 0.00000E+00
 -1       359 7.51500E+01 4.48040E+01 0.00000E+00
 -1       360 7.81500E+01 4.48040E+01 0.00000E+00
 -1       361 8.11500E+01 4.48040E+01 0.00000E+00
 -1       362 8.41500E+01 4.48040E+01 0.00000E+00
 -1       363 8.71500E+01 4.48040E+01 0.00000E+00
 -1       364 9.01500E+01 4.48040E+01 0.00000E+00
 -1       365 9.31500E+01 4.48040E+01 0.00000E+00
 -1       366 9.61500E+01 4.48040E+01 0.00000E+00
 -1       367 9.91500E+01 4.48040E+01 0.00000E+00
 -1       368 1.02150E+02 4.48040E+01 0.00000E+00
 -1       369 1.05150E+02 4.48040E+01 0.00000E+00
 -1       370 1.08150E+02 4.48040E+01 0.00000E+00
 -1       371 1.11150E+02 4.48040E+01 0.00000E+00
 -1       372 1.14150E+02 4.48040E+01 0.00000E+00
 -1       373 1.17150E+02 4.48040E+01 0.00000E+00
 -1       374 1.20150E+02 4.48040E+01 0.00000E+00
 -1       375 1.23150E+02 4.48040E+01 0.00000E+00
 -1       376 1.26150E+02 4.48040E+01 0.00000E+00
 -1       377 1.29150E+02 4.48040E+01 0.00000E+00
 -1       378 1.32150E+02 4.48040E+01 0.00000E+00
 -1       379 1.35150E+02 4.48040E+01 0.00000E+00
 -1       380 1.38150E+02 4.48040E+01 0.00000E+00
 -1       381 1.41150E+02 4.48040E+01 0.00000E+00
 -1       382 1.43838E+02 4.49212E+01 0.00000E+00
 -1       383 1.15350E+01 4.00625E+00 0.00000E+00
 -1       384 1.45350E+01 4.00625E+00 0.00000E+00
 -1       385 1.75350E+01 4.00625E+00 0.00000E+00
 -1       386 2.05350E+01 4.00625E+00 0.00000E+00
 -1       387 2.35350E+01 4.00625E+00 0.00000E+00
 -1       388 2.65350E+01 4.00625E+00 0.00000E+00
 -1       389 2.95350E+01 4.00625E+00 0.00000E+00
 -1       390 3.25350E+01 4.00625E+00 0.00000E+00
 -1       391 3.55350E+01 4.00625E+00 0.00000E+00
 -1       392 3.85350E+01 4.00625E+00 0.00000E+00
 -1       393 4.15350E+01 4.00625E+00 0.00000E+00
 -1       394 4.45350E+01 4.00625E+00 0.00000E+00
 -1       395 4.75350E+01 4.00625E+00 0.00000E+00
 -1       396 5.05350E+01 4.00625E+00 0.00000E+00
 -1       397 5.35350E+01 4.00625E+00 0.00000E+00
 -1       398 5.65350E+01 4.00625E+00 0.00000E+00
 -1       399 5.95350E+01 4.00625E+00 0.00000E+00
 -1       400 6.25350E+01 4.00625E+00 0.00000E+00
 -1       401 6.55350E+01 4.00625E+00 0.00000E+00
 -1       402 6.85350E+01 4.00625E+00 0.00000E+00
 -1       403 7.15350E+01 4.00625E+00 0.00000E+00
 -1       404 7.43850E+01 4.00625E+00 0.00000E+00
 -1       405 7.73850E+01 4.00625E+00 0.00000E+00
 -1       406 8.03850E+01 4.00625E+00 0.00000E+00
 -1       407 8.33850E+01 4.00625E+00 0.00000E+00
 -1       408 8.63850E+01 4.00625E+00 0.00000E+00
 -1       409 8.93850E+01 4.00625E+00 0.00000E+00
 -1       410 9.23850E+01 4.00625E+00 0.00000E+00
 -1       411 9.53850E+01 4.00625E+00 0.00000E+00
 -1       412 9.83850E+01 4.00625E+00 0.00000E+00
 -1       413 1.01385E+02 4.00625E+00 0.00000E+00
 -1       414 1.04385E+02 4.00625E+00 0.00000E+00
 -1       415 1.07385E+02 4.00625E+00 0.00000E+00
 -1       416 1.10385E+02 4.00625E+00 0.00000E+00
 -1       417 1.13385E+02 4.00625E+00 0.00000E+00
 -1       418 1.16385E+02 4.00625E+00 0.00000E+00
 -1       419 1.19385E+02 4.00625E+00 0.00000E+00
 -1       420 1.22385E+02 4.00625E+00 0.00000E+00
 -1       421 1.25385E+02 4.00625E+00 0.00000E+00
 -1       422 1.28385E+02 4.00625E+00 0.00000E+00
 -1       423 1.31385E+02 4.00625E+00 0.00000E+00
 -1       424 1.34385E+02 4.00625E+00 0.00000E+00
 -1       425 1.37385E+02 4.00625E+00 0.00000E+00
 -1       426 1.40385E+02 4.00625E+00 0.00000E+00
 -1       427 1.43385E+02 4.00625E+00 0.00000E+00
 -1       428 1.45393E+02 4.21562E+00 0.00000E+00
 -1       429 1.44804E+02 1.18000E+01 0.00000E+00
 -1       430 1.44804E+02 8.85000E+00 0.00000E+00
 -1       431 1.45099E+02 6.53281E+00 0.00000E+00
 -1       432 1.44804E+02 1.47000E+01 0.00000E+00
 -1       433 1.44804E+02 1.76500E+01 0.00000E+00
 -1       434 1.44804E+02 2.06000E+01 0.00000E+00
 -1       435 1.44804E+02 2.35500E+01 0.00000E+00
 -1       436 1.44804E+02 2.65000E+01 0.00000E+00
 -1       437 1.44804E+02 2.94500E+01 0.00000E+00
 -1       438 1.44804E+02 3.23500E+01 0.00000E+00
 -1       439 1.44804E+02 3.53000E+01 0.00000E+00
 -1       440 1.44804E+02 3.82500E+01 0.00000E+00
 -1       441 1.44804E+02 4.12000E+01 0.00000E+00
 -1       442 8.54117E+01 1.31918E+01 0.00000E+00
 -1       443 8.61541E+01 1.69810E+01 0.00000E+00
 -1       444 8.60308E+01 1.49857E+01 0.00000E+00
 -1       445 8.45850E+01 1.16024E+01 0.00000E+00
 -1       446 8.31302E+01 9.64666E+00 0.00000E+00
 -1       447 5.19600E+00 3.82125E+01 0.00000E+00
 -1       448 7.95231E+01 7.74025E+00 0.00000E+00
 -1       449 7.76898E+01 7.48097E+00 0.00000E+00
 -1       450 7.54144E+01 7.23797E+00 0.00000E+00
 -1       451 7.38139E+01 7.66731E+00 0.00000E+00
 -1       452 7.18392E+01 8.73359E+00 0.00000E+00
 -1       453 7.01808E+01 9.77220E+00 0.00000E+00
 -1       454 6.90319E+01 1.13888E+01 0.00000E+00
 -1       455 6.80025E+01 1.28525E+01 0.00000E+00
 -1       456 6.71125E+01 1.49837E+01 0.00000E+00
 -1       457 6.70226E+01 1.71271E+01 0.00000E+00
 -1       458 6.71941E+01 1.90748E+01 0.00000E+00
 -1       459 6.77207E+01 2.06813E+01 0.00000E+00
 -1       460 6.89367E+01 2.26206E+01 0.00000E+00
 -1       461 6.99893E+01 2.40551E+01 0.00000E+00
 -1       462 7.16826E+01 2.55203E+01 0.00000E+00
 -1       463 7.38068E+01 2.61744E+01 0.00000E+00
 -1       464 7.56476E+01 2.63889E+01 0.00000E+00
 -1       465 7.75527E+01 2.63902E+01 0.00000E+00
 -1       466 7.94774E+01 2.62893E+01 0.00000E+00
 -1       467 8.14006E+01 2.54081E+01 0.00000E+00
 -1       468 8.29559E+01 2.40303E+01 0.00000E+00
 -1       469 8.41949E+01 2.27296E+01 0.00000E+00
 -1       470 8.57068E+01 2.09584E+01 0.00000E+00
 -1       471 8.62362E+01 1.92903E+01 0.00000E+00
 -1       472 8.14109E+01 8.70858E+00 0.00000E+00
 -1       473 6.65661E+01 1.35466E+01 0.00000E+00
 -1       474 1.00350E+01 6.60425E+00 0.00000E+00
 -1       475 7.79400E+00 3.08500E+01 0.00000E+00
 -1       476 7.79400E+00 3.38000E+01 0.00000E+00
 -1       477 7.79400E+00 2.49500E+01 0.00000E+00
 -1       478 7.79400E+00 2.20000E+01 0.00000E+00
 -1       479 7.79400E+00 1.91000E+01 0.00000E+00
 -1       480 7.79400E+00 1.61500E+01 0.00000E+00
 -1       481 7.79400E+00 1.32000E+01 0.00000E+00
 -1       482 7.79400E+00 1.02500E+01 0.00000E+00
 -1       483 1.30350E+01 6.60425E+00 0.00000E+00
 -1       484 1.06500E+01 4.22060E+01 0.00000E+00
 -1       485 8.12498E+01 6.69837E+00 0.00000E+00
 -1       486 1.36500E+01 4.22060E+01 0.00000E+00
 -1       487 1.66500E+01 4.22060E+01 0.00000E+00
 -1       488 1.96500E+01 4.22060E+01 0.00000E+00
 -1       489 2.26500E+01 4.22060E+01 0.00000E+00
 -1       490 2.56500E+01 4.22060E+01 0.00000E+00
 -1       491 2.86500E+01 4.22060E+01 0.00000E+00
 -1       492 3.16500E+01 4.22060E+01 0.00000E+00
 -1       493 3.46500E+01 4.22060E+01 0.00000E+00
 -1       494 3.76500E+01 4.22060E+01 0.00000E+00
 -1       495 4.06500E+01 4.22060E+01 0.00000E+00
 -1       496 4.36500E+01 4.22060E+01 0.00000E+00
 -1       497 4.66500E+01 4.22060E+01 0.00000E+00
 -1       498 4.96500E+01 4.22060E+01 0.00000E+00
 -1       499 5.26500E+01 4.22060E+01 0.00000E+00
 -1       500 5.56500E+01 4.22060E+01 0.00000E+00
 -1       501 5.86500E+01 4.22060E+01 0.00000E+00
 -1       502 6.16500E+01 4.22060E+01 0.00000E+00
 -1       503 6.46500E+01 4.22060E+01 0.00000E+00
 -1       504 6.76500E+01 4.22060E+01 0.00000E+00
 -1       505 7.06500E+01 4.22060E+01 0.00000E+00
 -1       506 7.36500E+01 4.22060E+01 0.00000E+00
 -1       507 7.66500E+01 4.22060E+01 0.00000E+00
 -1       508 7.96500E+01 4.22060E+01 0.00000E+00
 -1       509 8.26500E+01 4.22060E+01 0.00000E+00
 -1       510 8.56500E+01 4.22060E+01 0.00000E+00
 -1       511 8.86500E+01 4.22060E+01 0.00000E+00
 -1       512 9.16500E+01 4.22060E+01 0.00000E+00
 -1       513 9.46500E+01 4.22060E+01 0.00000E+00
 -1       514 9.76500E+01 4.22060E+01 0.00000E+00
 -1       515 1.00650E+02 4.22060E+01 0.00000E+00
 -1       516 1.03650E+02 4.22060E+01 0.00000E+00
 -1       517 1.06650E+02 4.22060E+01 0.00000E+00
 -1       518 1.09650E+02 4.22060E+01 0.00000E+00
 -1       519 1.12650E+02 4.22060E+01 0.00000E+00
 -1       520 1.15650E+02 4.22060E+01 0.00000E+00
 -1       521 1.18650E+02 4.22060E+01 0.00000E+00
 -1       522 1.21650E+02 4.22060E+01 0.00000E+00
 -1       523 1.24650E+02 4.22060E+01 0.00000E+00
 -1       524 1.27650E+02 4.22060E+01 0.00000E+00
 -1       525 1.30650E+02 4.22060E+01 0.00000E+00
 -1       526 1.33650E+02 4.22060E+01 0.00000E+00
 -1       527 1.36650E+02 4.22060E+01 0.00000E+00
 -1       528 1.39650E+02 4.22060E+01 0.00000E+00
 -1       529 1.90350E+01 6.60425E+00 0.00000E+00
 -1       530 2.20350E+01 6.60425E+00 0.00000E+00
 -1       531 2.50350E+01 6.60425E+00 0.00000E+00
 -1       532 2.80350E+01 6.60425E+00 0.00000E+00
 -1       533 3.10350E+01 6.60425E+00 0.00000E+00
 -1       534 3.40350E+01 6.60425E+00 0.00000E+00
 -1       535 3.70350E+01 6.60425E+00 0.00000E+00
 -1       536 4.00350E+01 6.60425E+00 0.00000E+00
 -1       537 4.30350E+01 6.60425E+00 0.00000E+00
 -1       538 4.60350E+01 6.60425E+00 0.00000E+00
 -1       539 4.90350E+01 6.60425E+00 0.00000E+00
 -1       540 5.20350E+01 6.60425E+00 0.00000E+00
 -1       541 5.50350E+01 6.60425E+00 0.00000E+00
 -1       542 5.80350E+01 6.60425E+00 0.00000E+00
 -1       543 6.10350E+01 6.60425E+00 0.00000E+00
 -1       544 6.40350E+01 6.60425E+00 0.00000E+00
 -1       545 6.70350E+01 6.60425E+00 0.00000E+00
 -1       546 7.29600E+01 6.22407E+00 0.00000E+00
 -1       547 8.48850E+01 6.39165E+00 0.00000E+00
 -1       548 8.78850E+01 6.39165E+00 0.00000E+00
 -1       549 9.08850E+01 6.39165E+00 0.00000E+00
 -1       550 9.38850E+01 6.39165E+00 0.00000E+00
 -1       551 9.68850E+01 6.39165E+00 0.00000E+00
 -1       552 9.98850E+01 6.39165E+00 0.00000E+00
 -1       553 1.02885E+02 6.39165E+00 0.00000E+00
 -1       554 1.05885E+02 6.39165E+00 0.00000E+00
 -1       555 1.08885E+02 6.39165E+00 0.00000E+00
 -1       556 1.11885E+02 6.39165E+00 0.00000E+00
 -1       557 1.14885E+02 6.39165E+00 0.00000E+00
 -1       558 1.17885E+02 6.39165E+00 0.00000E+00
 -1       559 1.20885E+02 6.39165E+00 0.00000E+00
 -1       560 1.23885E+02 6.39165E+00 0.00000E+00
 -1       561 1.26885E+02 6.39165E+00 0.00000E+00
 -1       562 1.29885E+02 6.39165E+00 0.00000E+00
 -1       563 1.32885E+02 6.39165E+00 0.00000E+00
 -1       564 1.35885E+02 6.39165E+00 0.00000E+00
 -1       565 1.38885E+02 6.39165E+00 0.00000E+00
 -1       566 1.41885E+02 6.39165E+00 0.00000E+00
 -1       567 1.42206E+02 1.61750E+01 0.00000E+00
 -1       568 1.42206E+02 1.91250E+01 0.00000E+00
 -1       569 1.42206E+02 1.03250E+01 0.00000E+00
 -1       570 1.42206E+02 1.32500E+01 0.00000E+00
 -1       571 1.42206E+02 2.20750E+01 0.00000E+00
 -1       572 1.42206E+02 2.50250E+01 0.00000E+00
 -1       573 1.42206E+02 2.79750E+01 0.00000E+00
 -1       574 1.42206E+02 3.08750E+01 0.00000E+00
 -1       575 1.42206E+02 3.38250E+01 0.00000E+00
 -1       576 1.42206E+02 3.67750E+01 0.00000E+00
 -1       577 1.42206E+02 3.97250E+01 0.00000E+00
 -1       578 8.75534E+01 1.58930E+01 0.00000E+00
 -1       579 8.72633E+01 1.35566E+01 0.00000E+00
 -1       580 8.77417E+01 1.80807E+01 0.00000E+00
 -1       581 1.60350E+01 6.60425E+00 0.00000E+00
 -1       582 8.65200E+01 1.16057E+01 0.00000E+00
 -1       583 8.29691E+01 7.63644E+00 0.00000E+00