    1C
    1UUSER                                                              
    1UDATE              27.october.2022                                 
    1UTIME              00:34:07                                        
    1UHOST                                                              
    1UPGM               CalculiX                                        
    1UVERSION           Version 2.17                             
    1UCOMPILETIME       Thu Jul 23 21:43:50 CEST 2020                    
    1UDIR                                                               
    1UDBN                                                               
    1UMAT    1SOLIDMATERIAL                                             
    2C                          4265                                     1
 -1         1 2.84463E+01 4.09085E+01 0.00000E+00
 -1         2 3.35949E+01 3.41578E+01 0.00000E+00
 -1         3 1.50000E+02 0.00000E+00 0.00000E+00
 -1         4 1.50000E+02 5.00000E+01 0.00000E+00
 -1         5 0.00000E+00 0.00000E+00 0.00000E+00
 -1         6 0.00000E+00 5.00000E+01 0.00000E+00
 -1         7 0.00000E+00 4.70500E+01 0.00000E+00
 -1         8 0.00000E+00 4.41000E+01 0.00000E+00
 -1         9 0.00000E+00 4.11500E+01 0.00000E+00
 -1        10 0.00000E+00 3.82000E+01 0.00000E+00
 -1        11 0.00000E+00 3.52500E+01 0.00000E+00
 -1        12 0.00000E+00 3.23500E+01 0.00000E+00
 -1        13 0.00000E+00 2.94000E+01 0.00000E+00
 -1        14 0.00000E+00 2.64500E+01 0.00000E+00
 -1        15 0.00000E+00 2.35000E+01 0.00000E+00
 -1        16 0.00000E+00 2.05500E+01 0.00000E+00
 -1        17 0.00000E+00 1.76000E+01 0.00000E+00
 -1        18 0.00000E+00 1.47000E+01 0.00000E+00
 -1        19 0.00000E+00 1.17500E+01 0.00000E+00
 -1        20 0.00000E+00 8.80000E+00 0.00000E+00
 -1        21 0.00000E+00 5.85000E+00 0.00000E+00
 -1        22 0.00000E+00 2.90000E+00 0.00000E+00
 -1        23 3.15000E+00 5.00000E+01 0.00000E+00
 -1        24 6.15000E+00 5.00000E+01 0.00000E+00
 -1        25 9.15000E+00 5.00000E+01 0.00000E+00
 -1        26 1.21500E+01 5.00000E+01 0.00000E+00
 -1        27 1.51500E+01 5.00000E+01 0.00000E+00
 -1        28 1.81500E+01 5.00000E+01 0.00000E+00
 -1        29 2.11500E+01 5.00000E+01 0.00000E+00
 -1        30 2.41500E+01 5.00000E+01 0.00000E+00
 -1        31 2.71500E+01 5.00000E+01 0.00000E+00
 -1        32 2.98500E+01 5.00000E+01 0.00000E+00
 -1        33 3.25500E+01 5.00000E+01 0.00000E+00
 -1        34 3.55500E+01 5.00000E+01 0.00000E+00
 -1        35 3.85500E+01 5.00000E+01 0.00000E+00
 -1        36 4.15500E+01 5.00000E+01 0.00000E+00
 -1        37 4.45500E+01 5.00000E+01 0.00000E+00
 -1        38 4.75500E+01 5.00000E+01 0.00000E+00
 -1        39 5.05500E+01 5.00000E+01 0.00000E+00
 -1        40 5.35500E+01 5.00000E+01 0.00000E+00
 -1        41 5.67000E+01 5.00000E+01 0.00000E+00
 -1        42 5.97000E+01 5.00000E+01 0.00000E+00
 -1        43 6.27000E+01 5.00000E+01 0.00000E+00
 -1        44 6.57000E+01 5.00000E+01 0.00000E+00
 -1        45 6.87000E+01 5.00000E+01 0.00000E+00
 -1        46 7.17000E+01 5.00000E+01 0.00000E+00
 -1        47 7.47000E+01 5.00000E+01 0.00000E+00
 -1        48 7.77000E+01 5.00000E+01 0.00000E+00
 -1        49 8.07000E+01 5.00000E+01 0.00000E+00
 -1        50 8.37000E+01 5.00000E+01 0.00000E+00
 -1        51 8.67000E+01 5.00000E+01 0.00000E+00
 -1        52 8.98500E+01 5.00000E+01 0.00000E+00
 -1        53 9.28500E+01 5.00000E+01 0.00000E+00
 -1        54 9.58500E+01 5.00000E+01 0.00000E+00
 -1        55 9.88500E+01 5.00000E+01 0.00000E+00
 -1        56 1.01850E+02 5.00000E+01 0.00000E+00
 -1        57 1.04850E+02 5.00000E+01 0.00000E+00
 -1        58 1.07850E+02 5.00000E+01 0.00000E+00
 -1        59 1.10850E+02 5.00000E+01 0.00000E+00
 -1        60 1.13850E+02 5.00000E+01 0.00000E+00
 -1        61 1.16850E+02 5.00000E+01 0.00000E+00
 -1        62 1.20000E+02 5.00000E+01 0.00000E+00
 -1        63 1.23000E+02 5.00000E+01 0.00000E+00
 -1        64 1.26000E+02 5.00000E+01 0.00000E+00
 -1        65 1.29000E+02 5.00000E+01 0.00000E+00
 -1        66 1.32000E+02 5.00000E+01 0.00000E+00
 -1        67 1.35000E+02 5.00000E+01 0.00000E+00
 -1        68 1.38000E+02 5.00000E+01 0.00000E+00
 -1        69 1.41000E+02 5.00000E+01 0.00000E+00
 -1        70 1.44000E+02 5.00000E+01 0.00000E+00
 -1        71 1.47000E+02 5.00000E+01 0.00000E+00
 -1        72 3.15000E+00 0.00000E+00 0.00000E+00
 -1        73 6.15000E+00 0.00000E+00 0.00000E+00
 -1        74 9.15000E+00 0.00000E+00 0.00000E+00
 -1        75 1.21500E+01 0.00000E+00 0.00000E+00
 -1        76 1.51500E+01 0.00000E+00 0.00000E+00
 -1        77 1.81500E+01 0.00000E+00 0.00000E+00
 -1        78 2.11500E+01 0.00000E+00 0.00000E+00
 -1        79 2.41500E+01 0.00000E+00 0.00000E+00
 -1        80 2.71500E+01 0.00000E+00 0.00000E+00
 -1        81 3.01500E+01 0.00000E+00 0.00000E+00
 -1        82 3.31500E+01 0.00000E+00 0.00000E+00
 -1        83 3.61500E+01 0.00000E+00 0.00000E+00
 -1        84 3.91500E+01 0.00000E+00 0.00000E+00
 -1        85 4.21500E+01 0.00000E+00 0.00000E+00
 -1        86 4.51500E+01 0.00000E+00 0.00000E+00
 -1        87 4.81500E+01 0.00000E+00 0.00000E+00
 -1        88 5.11500E+01 0.00000E+00 0.00000E+00
 -1        89 5.41500E+01 0.00000E+00 0.00000E+00
 -1        90 5.71500E+01 0.00000E+00 0.00000E+00
 -1        91 6.01500E+01 0.00000E+00 0.00000E+00
 -1        92 6.31500E+01 0.00000E+00 0.00000E+00
 -1        93 6.61500E+01 0.00000E+00 0.00000E+00
 -1        94 6.91500E+01 0.00000E+00 0.00000E+00
 -1        95 7.21500E+01 0.00000E+00 0.00000E+00
 -1        96 7.51500E+01 0.00000E+00 0.00000E+00
 -1        97 7.81500E+01 0.00000E+00 0.00000E+00
 -1        98 8.11500E+01 0.00000E+00 0.00000E+00
 -1        99 8.41500E+01 0.00000E+00 0.00000E+00
 -1       100 8.71500E+01 0.00000E+00 0.00000E+00
 -1       101 9.01500E+01 0.00000E+00 0.00000E+00
 -1       102 9.31500E+01 0.00000E+00 0.00000E+00
 -1       103 9.61500E+01 0.00000E+00 0.00000E+00
 -1       104 9.91500E+01 0.00000E+00 0.00000E+00
 -1       105 1.02150E+02 0.00000E+00 0.00000E+00
 -1       106 1.05150E+02 0.00000E+00 0.00000E+00
 -1       107 1.08150E+02 0.00000E+00 0.00000E+00
 -1       108 1.11150E+02 0.00000E+00 0.00000E+00
 -1       109 1.14150E+02 0.00000E+00 0.00000E+00
 -1       110 1.17150E+02 0.00000E+00 0.00000E+00
 -1       111 1.20150E+02 0.00000E+00 0.00000E+00
 -1       112 1.23150E+02 0.00000E+00 0.00000E+00
 -1       113 1.26150E+02 0.00000E+00 0.00000E+00
 -1       114 1.29150E+02 0.00000E+00 0.00000E+00
 -1       115 1.32150E+02 0.00000E+00 0.00000E+00
 -1       116 1.35150E+02 0.00000E+00 0.00000E+00
 -1       117 1.38150E+02 0.00000E+00 0.00000E+00
 -1       118 1.41150E+02 0.00000E+00 0.00000E+00
 -1       119 1.44150E+02 0.00000E+00 0.00000E+00
 -1       120 1.47150E+02 0.00000E+00 0.00000E+00
 -1       121 1.50000E+02 2.95000E+00 0.00000E+00
 -1       122 1.50000E+02 5.90000E+00 0.00000E+00
 -1       123 1.50000E+02 8.85000E+00 0.00000E+00
 -1       124 1.50000E+02 1.18000E+01 0.00000E+00
 -1       125 1.50000E+02 1.47500E+01 0.00000E+00
 -1       126 1.50000E+02 1.76500E+01 0.00000E+00
 -1       127 1.50000E+02 2.06000E+01 0.00000E+00
 -1       128 1.50000E+02 2.35500E+01 0.00000E+00
 -1       129 1.50000E+02 2.65000E+01 0.00000E+00
 -1       130 1.50000E+02 2.94500E+01 0.00000E+00
 -1       131 1.50000E+02 3.24000E+01 0.00000E+00
 -1       132 1.50000E+02 3.53000E+01 0.00000E+00
 -1       133 1.50000E+02 3.82500E+01 0.00000E+00
 -1       134 1.50000E+02 4.12000E+01 0.00000E+00
 -1       135 1.50000E+02 4.41500E+01 0.00000E+00
 -1       136 1.50000E+02 4.71000E+01 0.00000E+00
 -1       137 3.34298E+01 3.26464E+01 0.00000E+00
 -1       138 3.29269E+01 3.11734E+01 0.00000E+00
 -1       139 3.21451E+01 2.98922E+01 0.00000E+00
 -1       140 3.10854E+01 2.87879E+01 0.00000E+00
 -1       141 2.99046E+01 2.79896E+01 0.00000E+00
 -1       142 2.84882E+01 2.74187E+01 0.00000E+00
 -1       143 2.70261E+01 2.71711E+01 0.00000E+00
 -1       144 2.54444E+01 2.72530E+01 0.00000E+00
 -1       145 2.40429E+01 2.76395E+01 0.00000E+00
 -1       146 2.26066E+01 2.84051E+01 0.00000E+00
 -1       147 2.14903E+01 2.93679E+01 0.00000E+00
 -1       148 2.05825E+01 3.05730E+01 0.00000E+00
 -1       149 1.99788E+01 3.18714E+01 0.00000E+00
 -1       150 1.96396E+01 3.33681E+01 0.00000E+00
 -1       151 1.96297E+01 3.48546E+01 0.00000E+00
 -1       152 1.99294E+01 3.62957E+01 0.00000E+00
 -1       153 2.05163E+01 3.76291E+01 0.00000E+00
 -1       154 2.14873E+01 3.89445E+01 0.00000E+00
 -1       155 2.26631E+01 3.99492E+01 0.00000E+00
 -1       156 2.40017E+01 4.06597E+01 0.00000E+00
 -1       157 2.53986E+01 4.10548E+01 0.00000E+00
 -1       158 2.69800E+01 4.11472E+01 0.00000E+00
 -1       159 2.98796E+01 4.03393E+01 0.00000E+00
 -1       160 3.11332E+01 3.94873E+01 0.00000E+00
 -1       161 3.22300E+01 3.83106E+01 0.00000E+00
 -1       162 3.29857E+01 3.70140E+01 0.00000E+00
 -1       163 3.34450E+01 3.55984E+01 0.00000E+00
 -1       164 2.59800E+00 4.55750E+01 0.00000E+00
 -1       165 2.59800E+00 4.26250E+01 0.00000E+00
 -1       166 2.59800E+00 3.96750E+01 0.00000E+00
 -1       167 2.59800E+00 3.67250E+01 0.00000E+00
 -1       168 2.59800E+00 3.38250E+01 0.00000E+00
 -1       169 2.59800E+00 3.08750E+01 0.00000E+00
 -1       170 2.59800E+00 2.79250E+01 0.00000E+00
 -1       171 2.59800E+00 2.49750E+01 0.00000E+00
 -1       172 2.59800E+00 2.20250E+01 0.00000E+00
 -1       173 2.59800E+00 1.90750E+01 0.00000E+00
 -1       174 2.59800E+00 1.61750E+01 0.00000E+00
 -1       175 2.59800E+00 1.32250E+01 0.00000E+00
 -1       176 2.59800E+00 1.02750E+01 0.00000E+00
 -1       177 2.59800E+00 7.32500E+00 0.00000E+00
 -1       178 2.59800E+00 4.37500E+00 0.00000E+00
 -1       179 2.87400E+00 2.18750E+00 0.00000E+00
 -1       180 4.65000E+00 4.74020E+01 0.00000E+00
 -1       181 7.65000E+00 4.74020E+01 0.00000E+00
 -1       182 1.06500E+01 4.74020E+01 0.00000E+00
 -1       183 1.36500E+01 4.74020E+01 0.00000E+00
 -1       184 1.66500E+01 4.74020E+01 0.00000E+00
 -1       185 1.96500E+01 4.74020E+01 0.00000E+00
 -1       186 2.26500E+01 4.74020E+01 0.00000E+00
 -1       187 2.56500E+01 4.74020E+01 0.00000E+00
 -1       188 2.83500E+01 4.74020E+01 0.00000E+00
 -1       189 3.10500E+01 4.74020E+01 0.00000E+00
 -1       190 3.40500E+01 4.74020E+01 0.00000E+00
 -1       191 3.70500E+01 4.74020E+01 0.00000E+00
 -1       192 4.00500E+01 4.74020E+01 0.00000E+00
 -1       193 4.30500E+01 4.74020E+01 0.00000E+00
 -1       194 4.60500E+01 4.74020E+01 0.00000E+00
 -1       195 4.90500E+01 4.74020E+01 0.00000E+00
 -1       196 5.20500E+01 4.74020E+01 0.00000E+00
 -1       197 5.52000E+01 4.74020E+01 0.00000E+00
 -1       198 5.82000E+01 4.74020E+01 0.00000E+00
 -1       199 6.12000E+01 4.74020E+01 0.00000E+00
 -1       200 6.42000E+01 4.74020E+01 0.00000E+00
 -1       201 6.72000E+01 4.74020E+01 0.00000E+00
 -1       202 7.02000E+01 4.74020E+01 0.00000E+00
 -1       203 7.32000E+01 4.74020E+01 0.00000E+00
 -1       204 7.62000E+01 4.74020E+01 0.00000E+00
 -1       205 7.92000E+01 4.74020E+01 0.00000E+00
 -1       206 8.22000E+01 4.74020E+01 0.00000E+00
 -1       207 8.52000E+01 4.74020E+01 0.00000E+00
 -1       208 8.83500E+01 4.74020E+01 0.00000E+00
 -1       209 9.13500E+01 4.74020E+01 0.00000E+00
 -1       210 9.43500E+01 4.74020E+01 0.00000E+00
 -1       211 9.73500E+01 4.74020E+01 0.00000E+00
 -1       212 1.00350E+02 4.74020E+01 0.00000E+00
 -1       213 1.03350E+02 4.74020E+01 0.00000E+00
 -1       214 1.06350E+02 4.74020E+01 0.00000E+00
 -1       215 1.09350E+02 4.74020E+01 0.00000E+00
 -1       216 1.12350E+02 4.74020E+01 0.00000E+00
 -1       217 1.15350E+02 4.74020E+01 0.00000E+00
 -1       218 1.18500E+02 4.74020E+01 0.00000E+00
 -1       219 1.21500E+02 4.74020E+01 0.00000E+00
 -1       220 1.24500E+02 4.74020E+01 0.00000E+00
 -1       221 1.27500E+02 4.74020E+01 0.00000E+00
 -1       222 1.30500E+02 4.74020E+01 0.00000E+00
 -1       223 1.33500E+02 4.74020E+01 0.00000E+00
 -1       224 1.36500E+02 4.74020E+01 0.00000E+00
 -1       225 1.39500E+02 4.74020E+01 0.00000E+00
 -1       226 1.42500E+02 4.74020E+01 0.00000E+00
 -1       227 1.45500E+02 4.74020E+01 0.00000E+00
 -1       228 1.47750E+02 4.72510E+01 0.00000E+00
 -1       229 5.87400E+00 2.18750E+00 0.00000E+00
 -1       230 8.87400E+00 2.18750E+00 0.00000E+00
 -1       231 1.18740E+01 2.18750E+00 0.00000E+00
 -1       232 1.48740E+01 2.18750E+00 0.00000E+00
 -1       233 1.78740E+01 2.18750E+00 0.00000E+00
 -1       234 2.08740E+01 2.18750E+00 0.00000E+00
 -1       235 2.38740E+01 2.18750E+00 0.00000E+00
 -1       236 2.68740E+01 2.18750E+00 0.00000E+00
 -1       237 2.98740E+01 2.18750E+00 0.00000E+00
 -1       238 3.28740E+01 2.18750E+00 0.00000E+00
 -1       239 3.58740E+01 2.18750E+00 0.00000E+00
 -1       240 3.88740E+01 2.18750E+00 0.00000E+00
 -1       241 4.18740E+01 2.18750E+00 0.00000E+00
 -1       242 4.48740E+01 2.18750E+00 0.00000E+00
 -1       243 4.78740E+01 2.18750E+00 0.00000E+00
 -1       244 5.08740E+01 2.18750E+00 0.00000E+00
 -1       245 5.38740E+01 2.18750E+00 0.00000E+00
 -1       246 5.68740E+01 2.18750E+00 0.00000E+00
 -1       247 5.98740E+01 2.18750E+00 0.00000E+00
 -1       248 6.28740E+01 2.18750E+00 0.00000E+00
 -1       249 6.58740E+01 2.18750E+00 0.00000E+00
 -1       250 6.88740E+01 2.18750E+00 0.00000E+00
 -1       251 7.18740E+01 2.18750E+00 0.00000E+00
 -1       252 7.48740E+01 2.18750E+00 0.00000E+00
 -1       253 7.78740E+01 2.18750E+00 0.00000E+00
 -1       254 8.08740E+01 2.18750E+00 0.00000E+00
 -1       255 8.38740E+01 2.18750E+00 0.00000E+00
 -1       256 8.68740E+01 2.18750E+00 0.00000E+00
 -1       257 8.98740E+01 2.18750E+00 0.00000E+00
 -1       258 9.28740E+01 2.18750E+00 0.00000E+00
 -1       259 9.58740E+01 2.18750E+00 0.00000E+00
 -1       260 9.88740E+01 2.18750E+00 0.00000E+00
 -1       261 1.01874E+02 2.18750E+00 0.00000E+00
 -1       262 1.04874E+02 2.18750E+00 0.00000E+00
 -1       263 1.07874E+02 2.18750E+00 0.00000E+00
 -1       264 1.10874E+02 2.18750E+00 0.00000E+00
 -1       265 1.13874E+02 2.18750E+00 0.00000E+00
 -1       266 1.16874E+02 2.18750E+00 0.00000E+00
 -1       267 1.19874E+02 2.18750E+00 0.00000E+00
 -1       268 1.22874E+02 2.18750E+00 0.00000E+00
 -1       269 1.25874E+02 2.18750E+00 0.00000E+00
 -1       270 1.28874E+02 2.18750E+00 0.00000E+00
 -1       271 1.31874E+02 2.18750E+00 0.00000E+00
 -1       272 1.34874E+02 2.18750E+00 0.00000E+00
 -1       273 1.37874E+02 2.18750E+00 0.00000E+00
 -1       274 1.40874E+02 2.18750E+00 0.00000E+00
 -1       275 1.43874E+02 2.18750E+00 0.00000E+00
 -1       276 1.46874E+02 2.18750E+00 0.00000E+00
 -1       277 1.47402E+02 4.42500E+00 0.00000E+00
 -1       278 1.47402E+02 7.37500E+00 0.00000E+00
 -1       279 1.47402E+02 1.03250E+01 0.00000E+00
 -1       280 1.47402E+02 1.32750E+01 0.00000E+00
 -1       281 1.47402E+02 1.61750E+01 0.00000E+00
 -1       282 1.47402E+02 1.91250E+01 0.00000E+00
 -1       283 1.47402E+02 2.20750E+01 0.00000E+00
 -1       284 1.47402E+02 2.50250E+01 0.00000E+00
 -1       285 1.47402E+02 2.79750E+01 0.00000E+00
 -1       286 1.47402E+02 3.09250E+01 0.00000E+00
 -1       287 1.47402E+02 3.38250E+01 0.00000E+00
 -1       288 1.47402E+02 3.67750E+01 0.00000E+00
 -1       289 1.47402E+02 3.97250E+01 0.00000E+00
 -1       290 1.47402E+02 4.26750E+01 0.00000E+00
 -1       291 1.47576E+02 4.49630E+01 0.00000E+00
 -1       292 3.48009E+01 3.32613E+01 0.00000E+00
 -1       293 3.44843E+01 3.14640E+01 0.00000E+00
 -1       294 3.36425E+01 2.98577E+01 0.00000E+00
 -1       295 3.25505E+01 2.84426E+01 0.00000E+00
 -1       296 3.11740E+01 2.73843E+01 0.00000E+00
 -1       297 2.96497E+01 2.65797E+01 0.00000E+00
 -1       298 2.79596E+01 2.60995E+01 0.00000E+00
 -1       299 2.61639E+01 2.58339E+01 0.00000E+00
 -1       300 2.44212E+01 2.62775E+01 0.00000E+00
 -1       301 2.26757E+01 2.68045E+01 0.00000E+00
 -1       302 2.12566E+01 2.79684E+01 0.00000E+00
 -1       303 2.00680E+01 2.92409E+01 0.00000E+00
 -1       304 1.91812E+01 3.07111E+01 0.00000E+00
 -1       305 1.85451E+01 3.23333E+01 0.00000E+00
 -1       306 1.84223E+01 3.41033E+01 0.00000E+00
 -1       307 1.85105E+01 3.58391E+01 0.00000E+00
 -1       308 1.91132E+01 3.74508E+01 0.00000E+00
 -1       309 1.98242E+01 3.91562E+01 0.00000E+00
 -1       310 2.12331E+01 4.04323E+01 0.00000E+00
 -1       311 2.27639E+01 4.13753E+01 0.00000E+00
 -1       312 2.43702E+01 4.20239E+01 0.00000E+00
 -1       313 2.61137E+01 4.23950E+01 0.00000E+00
 -1       314 2.79214E+01 4.23072E+01 0.00000E+00
 -1       315 2.96104E+01 4.17507E+01 0.00000E+00
 -1       316 3.11878E+01 4.09160E+01 0.00000E+00
 -1       317 3.26910E+01 3.98399E+01 0.00000E+00
 -1       318 3.37277E+01 3.83150E+01 0.00000E+00
 -1       319 3.43686E+01 3.66804E+01 0.00000E+00
 -1       320 3.47259E+01 3.50035E+01 0.00000E+00
 -1       321 5.19600E+00 4.11500E+01 0.00000E+00
 -1       322 5.19600E+00 4.41000E+01 0.00000E+00
 -1       323 5.19600E+00 3.52750E+01 0.00000E+00
 -1       324 5.19600E+00 3.23250E+01 0.00000E+00
 -1       325 5.19600E+00 2.93750E+01 0.00000E+00
 -1       326 5.19600E+00 2.64250E+01 0.00000E+00
 -1       327 5.19600E+00 2.34750E+01 0.00000E+00
 -1       328 5.19600E+00 2.05250E+01 0.00000E+00
 -1       329 5.19600E+00 1.76250E+01 0.00000E+00
 -1       330 5.19600E+00 1.46750E+01 0.00000E+00
 -1       331 5.19600E+00 1.17250E+01 0.00000E+00
 -1       332 5.19600E+00 8.77500E+00 0.00000E+00
 -1       333 5.19600E+00 5.82500E+00 0.00000E+00
 -1       334 5.53500E+00 4.00625E+00 0.00000E+00
 -1       335 8.53500E+00 4.00625E+00 0.00000E+00
 -1       336 9.15000E+00 4.48040E+01 0.00000E+00
 -1       337 1.21500E+01 4.48040E+01 0.00000E+00
 -1       338 1.51500E+01 4.48040E+01 0.00000E+00
 -1       339 1.81500E+01 4.48040E+01 0.00000E+00
 -1       340 2.11500E+01 4.48040E+01 0.00000E+00
 -1       341 2.41500E+01 4.53517E+01 0.00000E+00
 -1       342 2.70000E+01 4.51842E+01 0.00000E+00
 -1       343 2.97000E+01 4.51842E+01 0.00000E+00
 -1       344 3.55500E+01 4.48040E+01 0.00000E+00
 -1       345 3.85500E+01 4.48040E+01 0.00000E+00
 -1       346 4.15500E+01 4.48040E+01 0.00000E+00
 -1       347 4.45500E+01 4.48040E+01 0.00000E+00
 -1       348 4.75500E+01 4.48040E+01 0.00000E+00
 -1       349 5.05500E+01 4.48040E+01 0.00000E+00
 -1       350 5.37000E+01 4.48040E+01 0.00000E+00
 -1       351 5.67000E+01 4.48040E+01 0.00000E+00
 -1       352 5.97000E+01 4.48040E+01 0.00000E+00
 -1       353 6.27000E+01 4.48040E+01 0.00000E+00
 -1       354 6.57000E+01 4.48040E+01 0.00000E+00
 -1       355 6.87000E+01 4.48040E+01 0.00000E+00
 -1       356 7.17000E+01 4.48040E+01 0.00000E+00
 -1       357 7.47000E+01 4.48040E+01 0.00000E+00
 -1       358 7.77000E+01 4.48040E+01 0.00000E+00
 -1       359 8.07000E+01 4.48040E+01 0.00000E+00
 -1       360 8.37000E+01 4.48040E+01 0.00000E+00
 -1       361 8.68500E+01 4.48040E+01 0.00000E+00
 -1       362 8.98500E+01 4.48040E+01 0.00000E+00
 -1       363 9.28500E+01 4.48040E+01 0.00000E+00
 -1       364 9.58500E+01 4.48040E+01 0.00000E+00
 -1       365 9.88500E+01 4.48040E+01 0.00000E+00
 -1       366 1.01850E+02 4.48040E+01 0.00000E+00
 -1       367 1.04850E+02 4.48040E+01 0.00000E+00
 -1       368 1.07850E+02 4.48040E+01 0.00000E+00
 -1       369 1.10850E+02 4.48040E+01 0.00000E+00
 -1       370 1.13850E+02 4.48040E+01 0.00000E+00
 -1       371 1.17000E+02 4.48040E+01 0.00000E+00
 -1       372 1.20000E+02 4.48040E+01 0.00000E+00
 -1       373 1.23000E+02 4.48040E+01 0.00000E+00
 -1       374 1.26000E+02 4.48040E+01 0.00000E+00
 -1       375 1.29000E+02 4.48040E+01 0.00000E+00
 -1       376 1.32000E+02 4.48040E+01 0.00000E+00
 -1       377 1.35000E+02 4.48040E+01 0.00000E+00
 -1       378 1.38000E+02 4.48040E+01 0.00000E+00
 -1       379 1.41000E+02 4.48040E+01 0.00000E+00
 -1       380 1.44000E+02 4.48040E+01 0.00000E+00
 -1       381 1.33740E+01 4.78550E+00 0.00000E+00
 -1       382 1.63740E+01 4.78550E+00 0.00000E+00
 -1       383 1.93740E+01 4.78550E+00 0.00000E+00
 -1       384 2.23740E+01 4.78550E+00 0.00000E+00
 -1       385 2.53740E+01 4.78550E+00 0.00000E+00
 -1       386 2.83740E+01 4.78550E+00 0.00000E+00
 -1       387 3.13740E+01 4.78550E+00 0.00000E+00
 -1       388 3.43740E+01 4.78550E+00 0.00000E+00
 -1       389 3.73740E+01 4.78550E+00 0.00000E+00
 -1       390 4.03740E+01 4.78550E+00 0.00000E+00
 -1       391 4.33740E+01 4.78550E+00 0.00000E+00
 -1       392 4.63740E+01 4.78550E+00 0.00000E+00
 -1       393 4.93740E+01 4.78550E+00 0.00000E+00
 -1       394 5.23740E+01 4.78550E+00 0.00000E+00
 -1       395 5.53740E+01 4.78550E+00 0.00000E+00
 -1       396 5.83740E+01 4.78550E+00 0.00000E+00
 -1       397 6.13740E+01 4.78550E+00 0.00000E+00
 -1       398 6.43740E+01 4.78550E+00 0.00000E+00
 -1       399 6.73740E+01 4.78550E+00 0.00000E+00
 -1       400 7.03740E+01 4.78550E+00 0.00000E+00
 -1       401 7.33740E+01 4.78550E+00 0.00000E+00
 -1       402 7.63740E+01 4.78550E+00 0.00000E+00
 -1       403 7.93740E+01 4.78550E+00 0.00000E+00
 -1       404 8.23740E+01 4.78550E+00 0.00000E+00
 -1       405 8.53740E+01 4.78550E+00 0.00000E+00
 -1       406 8.83740E+01 4.78550E+00 0.00000E+00
 -1       407 9.13740E+01 4.78550E+00 0.00000E+00
 -1       408 9.43740E+01 4.78550E+00 0.00000E+00
 -1       409 9.73740E+01 4.78550E+00 0.00000E+00
 -1       410 1.00374E+02 4.78550E+00 0.00000E+00
 -1       411 1.03374E+02 4.78550E+00 0.00000E+00
 -1       412 1.06374E+02 4.78550E+00 0.00000E+00
 -1       413 1.09374E+02 4.78550E+00 0.00000E+00
 -1       414 1.12374E+02 4.78550E+00 0.00000E+00
 -1       415 1.15374E+02 4.78550E+00 0.00000E+00
 -1       416 1.18374E+02 4.78550E+00 0.00000E+00
 -1       417 1.21374E+02 4.78550E+00 0.00000E+00
 -1       418 1.24374E+02 4.78550E+00 0.00000E+00
 -1       419 1.27374E+02 4.78550E+00 0.00000E+00
 -1       420 1.30374E+02 4.78550E+00 0.00000E+00
 -1       421 1.33374E+02 4.78550E+00 0.00000E+00
 -1       422 1.36374E+02 4.78550E+00 0.00000E+00
 -1       423 1.39374E+02 4.78550E+00 0.00000E+00
 -1       424 1.42374E+02 4.78550E+00 0.00000E+00
 -1       425 1.44888E+02 4.60525E+00 0.00000E+00
 -1       426 1.44804E+02 1.18000E+01 0.00000E+00
 -1       427 1.44804E+02 8.85000E+00 0.00000E+00
 -1       428 1.44804E+02 1.47000E+01 0.00000E+00
 -1       429 1.44804E+02 1.76500E+01 0.00000E+00
 -1       430 1.44804E+02 2.06000E+01 0.00000E+00
 -1       431 1.44804E+02 2.35500E+01 0.00000E+00
 -1       432 1.44804E+02 2.65000E+01 0.00000E+00
 -1       433 1.44804E+02 2.94500E+01 0.00000E+00
 -1       434 1.44804E+02 3.23500E+01 0.00000E+00
 -1       435 1.44804E+02 3.53000E+01 0.00000E+00
 -1       436 1.44804E+02 3.82500E+01 0.00000E+00
 -1       437 1.44804E+02 4.12000E+01 0.00000E+00
 -1       438 1.09545E+01 4.39587E+00 0.00000E+00
 -1       439 3.55083E+01 2.99036E+01 0.00000E+00
 -1       440 3.27033E+01 2.68194E+01 0.00000E+00
 -1       441 3.60584E+01 3.41882E+01 0.00000E+00
 -1       442 3.42553E+01 2.82559E+01 0.00000E+00
 -1       443 5.19600E+00 3.82125E+01 0.00000E+00
 -1       444 3.10561E+01 2.57616E+01 0.00000E+00
 -1       445 2.92276E+01 2.48510E+01 0.00000E+00
 -1       446 2.72759E+01 2.45187E+01 0.00000E+00
 -1       447 2.49521E+01 2.47184E+01 0.00000E+00
 -1       448 2.31012E+01 2.50595E+01 0.00000E+00
 -1       449 2.10379E+01 2.62547E+01 0.00000E+00
 -1       450 1.97150E+01 2.77199E+01 0.00000E+00
 -1       451 1.85147E+01 2.93065E+01 0.00000E+00
 -1       452 1.75005E+01 3.09878E+01 0.00000E+00
 -1       453 1.67727E+01 3.30996E+01 0.00000E+00
 -1       454 1.68609E+01 3.48353E+01 0.00000E+00
 -1       455 1.74408E+01 3.71576E+01 0.00000E+00
 -1       456 1.81518E+01 3.88630E+01 0.00000E+00
 -1       457 1.96585E+01 4.07549E+01 0.00000E+00
 -1       458 2.11429E+01 4.22927E+01 0.00000E+00
 -1       459 2.29877E+01 4.31346E+01 0.00000E+00
 -1       460 2.49373E+01 4.36411E+01 0.00000E+00
 -1       461 2.67449E+01 4.35533E+01 0.00000E+00
 -1       462 2.91715E+01 4.32600E+01 0.00000E+00
 -1       463 3.10445E+01 4.25531E+01 0.00000E+00
 -1       464 3.28403E+01 4.16363E+01 0.00000E+00
 -1       465 3.44892E+01 3.99475E+01 0.00000E+00
 -1       466 3.55669E+01 3.80932E+01 0.00000E+00
 -1       467 3.58149E+01 3.61121E+01 0.00000E+00
 -1       468 3.60841E+01 3.21087E+01 0.00000E+00
 -1       469 3.25500E+01 4.48490E+01 0.00000E+00
 -1       470 1.79861E+01 4.04617E+01 0.00000E+00
 -1       471 7.79400E+00 3.08500E+01 0.00000E+00
 -1       472 7.79400E+00 3.38000E+01 0.00000E+00
 -1       473 7.79400E+00 2.49500E+01 0.00000E+00
 -1       474 7.79400E+00 2.20000E+01 0.00000E+00
 -1       475 7.79400E+00 1.91000E+01 0.00000E+00
 -1       476 7.79400E+00 1.61500E+01 0.00000E+00
 -1       477 7.79400E+00 1.32000E+01 0.00000E+00
 -1       478 7.79400E+00 1.02500E+01 0.00000E+00
 -1       479 7.79400E+00 7.30000E+00 0.00000E+00
 -1       480 8.16450E+00 5.65312E+00 0.00000E+00
 -1       481 1.06500E+01 4.22060E+01 0.00000E+00
 -1       482 3.62470E+01 2.80416E+01 0.00000E+00
 -1       483 3.73746E+01 3.05940E+01 0.00000E+00
 -1       484 1.36500E+01 4.22060E+01 0.00000E+00
 -1       485 1.96500E+01 4.27537E+01 0.00000E+00
 -1       486 3.40192E+01 4.27765E+01 0.00000E+00
 -1       487 4.00500E+01 4.22510E+01 0.00000E+00
 -1       488 4.30500E+01 4.22510E+01 0.00000E+00
 -1       489 4.60500E+01 4.22510E+01 0.00000E+00
 -1       490 4.90500E+01 4.22510E+01 0.00000E+00
 -1       491 5.22000E+01 4.22510E+01 0.00000E+00
 -1       492 5.52000E+01 4.22510E+01 0.00000E+00
 -1       493 5.82000E+01 4.22510E+01 0.00000E+00
 -1       494 6.12000E+01 4.22510E+01 0.00000E+00
 -1       495 6.42000E+01 4.22510E+01 0.00000E+00
 -1       496 6.72000E+01 4.22510E+01 0.00000E+00
 -1       497 7.02000E+01 4.22510E+01 0.00000E+00
 -1       498 7.32000E+01 4.22510E+01 0.00000E+00
 -1       499 7.62000E+01 4.22510E+01 0.00000E+00
 -1       500 7.92000E+01 4.22510E+01 0.00000E+00
 -1       501 8.22000E+01 4.22510E+01 0.00000E+00
 -1       502 8.53500E+01 4.22510E+01 0.00000E+00
 -1       503 8.83500E+01 4.22510E+01 0.00000E+00
 -1       504 9.13500E+01 4.22510E+01 0.00000E+00
 -1       505 9.43500E+01 4.22510E+01 0.00000E+00
 -1       506 9.73500E+01 4.22510E+01 0.00000E+00
 -1       507 1.00350E+02 4.22510E+01 0.00000E+00
 -1       508 1.03350E+02 4.22510E+01 0.00000E+00
 -1       509 1.06350E+02 4.22510E+01 0.00000E+00
 -1       510 1.09350E+02 4.22510E+01 0.00000E+00
 -1       511 1.12350E+02 4.22510E+01 0.00000E+00
 -1       512 1.15500E+02 4.22510E+01 0.00000E+00
 -1       513 1.18500E+02 4.22510E+01 0.00000E+00
 -1       514 1.21500E+02 4.22510E+01 0.00000E+00
 -1       515 1.24500E+02 4.22510E+01 0.00000E+00
 -1       516 1.27500E+02 4.22510E+01 0.00000E+00
 -1       517 1.30500E+02 4.22510E+01 0.00000E+00
 -1       518 1.33500E+02 4.22510E+01 0.00000E+00
 -1       519 1.36500E+02 4.22510E+01 0.00000E+00
 -1       520 1.39500E+02 4.22510E+01 0.00000E+00
 -1       521 1.42152E+02 4.17255E+01 0.00000E+00
 -1       522 2.08740E+01 7.38350E+00 0.00000E+00
 -1       523 1.78740E+01 7.38350E+00 0.00000E+00
 -1       524 1.48740E+01 7.38350E+00 0.00000E+00
 -1       525 2.38740E+01 7.38350E+00 0.00000E+00
 -1       526 2.68740E+01 7.38350E+00 0.00000E+00
 -1       527 2.98740E+01 7.38350E+00 0.00000E+00
 -1       528 3.28740E+01 7.38350E+00 0.00000E+00
 -1       529 3.58740E+01 7.38350E+00 0.00000E+00
 -1       530 3.88740E+01 7.38350E+00 0.00000E+00
 -1       531 4.18740E+01 7.38350E+00 0.00000E+00
 -1       532 4.48740E+01 7.38350E+00 0.00000E+00
 -1       533 4.78740E+01 7.38350E+00 0.00000E+00
 -1       534 5.08740E+01 7.38350E+00 0.00000E+00
 -1       535 5.38740E+01 7.38350E+00 0.00000E+00
 -1       536 5.68740E+01 7.38350E+00 0.00000E+00
 -1       537 5.98740E+01 7.38350E+00 0.00000E+00
 -1       538 6.28740E+01 7.38350E+00 0.00000E+00
 -1       539 6.58740E+01 7.38350E+00 0.00000E+00
 -1       540 6.88740E+01 7.38350E+00 0.00000E+00
 -1       541 7.18740E+01 7.38350E+00 0.00000E+00
 -1       542 7.48740E+01 7.38350E+00 0.00000E+00
 -1       543 7.78740E+01 7.38350E+00 0.00000E+00
 -1       544 8.08740E+01 7.38350E+00 0.00000E+00
 -1       545 8.38740E+01 7.38350E+00 0.00000E+00
 -1       546 8.68740E+01 7.38350E+00 0.00000E+00
 -1       547 8.98740E+01 7.38350E+00 0.00000E+00
 -1       548 9.28740E+01 7.38350E+00 0.00000E+00
 -1       549 9.58740E+01 7.38350E+00 0.00000E+00
 -1       550 9.88740E+01 7.38350E+00 0.00000E+00
 -1       551 1.01874E+02 7.38350E+00 0.00000E+00
 -1       552 1.04874E+02 7.38350E+00 0.00000E+00
 -1       553 1.07874E+02 7.38350E+00 0.00000E+00
 -1       554 1.10874E+02 7.38350E+00 0.00000E+00
 -1       555 1.13874E+02 7.38350E+00 0.00000E+00
 -1       556 1.16874E+02 7.38350E+00 0.00000E+00
 -1       557 1.19874E+02 7.38350E+00 0.00000E+00
 -1       558 1.22874E+02 7.38350E+00 0.00000E+00
 -1       559 1.25874E+02 7.38350E+00 0.00000E+00
 -1       560 1.28874E+02 7.38350E+00 0.00000E+00
 -1       561 1.31874E+02 7.38350E+00 0.00000E+00
 -1       562 1.34874E+02 7.38350E+00 0.00000E+00
 -1       563 1.37874E+02 7.38350E+00 0.00000E+00
 -1       564 1.40874E+02 7.38350E+00 0.00000E+00
 -1       565 1.42206E+02 1.61750E+01 0.00000E+00
 -1       566 1.42206E+02 1.32750E+01 0.00000E+00
 -1       567 1.42206E+02 1.03250E+01 0.00000E+00
 -1       568 3.76187E+01 3.31676E+01 0.00000E+00
 -1       569 1.42206E+02 1.91250E+01 0.00000E+00
 -1       570 1.42206E+02 2.20750E+01 0.00000E+00
 -1       571 1.42206E+02 2.50250E+01 0.00000E+00
 -1       572 1.42206E+02 2.79750E+01 0.00000E+00
 -1       573 1.42206E+02 3.08750E+01 0.00000E+00
 -1       574 1.42206E+02 3.38250E+01 0.00000E+00
 -1       575 1.42206E+02 3.67750E+01 0.00000E+00
 -1       576 1.42179E+02 3.92503E+01 0.00000E+00
 -1       577 7.92300E+00 4.16780E+01 0.00000E+00
 -1       578 3.28064E+01 2.48474E+01 0.00000E+00
 -1       579 3.45874E+01 2.63404E+01 0.00000E+00
 -1       580 3.72265E+01 3.72949E+01 0.00000E+00
 -1       581 1.55150E+01 3.14848E+01 0.00000E+00
 -1       582 3.74699E+01 3.53710E+01 0.00000E+00
 -1       583 3.70500E+01 4.22510E+01 0.00000E+00