    1C
    1UUSER                                                              
    1UDATE              27.october.2022                                 
    1UTIME              00:26:29                                        
    1UHOST                                                              
    1UPGM               CalculiX                                        
    1UVERSION           Version 2.17                             
    1UCOMPILETIME       Thu Jul 23 21:43:50 CEST 2020                    
    1UDIR                                                               
    1UDBN                                                               
    1UMAT    1SOLIDMATERIAL                                             
    2C                          4303                                     1
 -1         1 5.63278E+01 1.72728E+01 0.00000E+00
 -1         2 6.87624E+01 1.28608E+01 0.00000E+00
 -1         3 1.50000E+02 0.00000E+00 0.00000E+00
 -1         4 1.50000E+02 5.00000E+01 0.00000E+00
 -1         5 0.00000E+00 0.00000E+00 0.00000E+00
 -1         6 0.00000E+00 5.00000E+01 0.00000E+00
 -1         7 0.00000E+00 4.70500E+01 0.00000E+00
 -1         8 0.00000E+00 4.41000E+01 0.00000E+00
 -1         9 0.00000E+00 4.11500E+01 0.00000E+00
 -1        10 0.00000E+00 3.82000E+01 0.00000E+00
 -1        11 0.00000E+00 3.52500E+01 0.00000E+00
 -1        12 0.00000E+00 3.23500E+01 0.00000E+00
 -1        13 0.00000E+00 2.94000E+01 0.00000E+00
 -1        14 0.00000E+00 2.64500E+01 0.00000E+00
 -1        15 0.00000E+00 2.35000E+01 0.00000E+00
 -1        16 0.00000E+00 2.05500E+01 0.00000E+00
 -1        17 0.00000E+00 1.76000E+01 0.00000E+00
 -1        18 0.00000E+00 1.47000E+01 0.00000E+00
 -1        19 0.00000E+00 1.17500E+01 0.00000E+00
 -1        20 0.00000E+00 8.80000E+00 0.00000E+00
 -1        21 0.00000E+00 5.85000E+00 0.00000E+00
 -1        22 0.00000E+00 2.90000E+00 0.00000E+00
 -1        23 3.15000E+00 5.00000E+01 0.00000E+00
 -1        24 6.15000E+00 5.00000E+01 0.00000E+00
 -1        25 9.15000E+00 5.00000E+01 0.00000E+00
 -1        26 1.21500E+01 5.00000E+01 0.00000E+00
 -1        27 1.51500E+01 5.00000E+01 0.00000E+00
 -1        28 1.81500E+01 5.00000E+01 0.00000E+00
 -1        29 2.11500E+01 5.00000E+01 0.00000E+00
 -1        30 2.41500E+01 5.00000E+01 0.00000E+00
 -1        31 2.71500E+01 5.00000E+01 0.00000E+00
 -1        32 3.01500E+01 5.00000E+01 0.00000E+00
 -1        33 3.31500E+01 5.00000E+01 0.00000E+00
 -1        34 3.61500E+01 5.00000E+01 0.00000E+00
 -1        35 3.91500E+01 5.00000E+01 0.00000E+00
 -1        36 4.21500E+01 5.00000E+01 0.00000E+00
 -1        37 4.51500E+01 5.00000E+01 0.00000E+00
 -1        38 4.81500E+01 5.00000E+01 0.00000E+00
 -1        39 5.11500E+01 5.00000E+01 0.00000E+00
 -1        40 5.41500E+01 5.00000E+01 0.00000E+00
 -1        41 5.71500E+01 5.00000E+01 0.00000E+00
 -1        42 6.01500E+01 5.00000E+01 0.00000E+00
 -1        43 6.31500E+01 5.00000E+01 0.00000E+00
 -1        44 6.61500E+01 5.00000E+01 0.00000E+00
 -1        45 6.91500E+01 5.00000E+01 0.00000E+00
 -1        46 7.21500E+01 5.00000E+01 0.00000E+00
 -1        47 7.51500E+01 5.00000E+01 0.00000E+00
 -1        48 7.81500E+01 5.00000E+01 0.00000E+00
 -1        49 8.11500E+01 5.00000E+01 0.00000E+00
 -1        50 8.41500E+01 5.00000E+01 0.00000E+00
 -1        51 8.71500E+01 5.00000E+01 0.00000E+00
 -1        52 9.01500E+01 5.00000E+01 0.00000E+00
 -1        53 9.31500E+01 5.00000E+01 0.00000E+00
 -1        54 9.61500E+01 5.00000E+01 0.00000E+00
 -1        55 9.91500E+01 5.00000E+01 0.00000E+00
 -1        56 1.02150E+02 5.00000E+01 0.00000E+00
 -1        57 1.05150E+02 5.00000E+01 0.00000E+00
 -1        58 1.08150E+02 5.00000E+01 0.00000E+00
 -1        59 1.11150E+02 5.00000E+01 0.00000E+00
 -1        60 1.14150E+02 5.00000E+01 0.00000E+00
 -1        61 1.17150E+02 5.00000E+01 0.00000E+00
 -1        62 1.20150E+02 5.00000E+01 0.00000E+00
 -1        63 1.23150E+02 5.00000E+01 0.00000E+00
 -1        64 1.26150E+02 5.00000E+01 0.00000E+00
 -1        65 1.29150E+02 5.00000E+01 0.00000E+00
 -1        66 1.32150E+02 5.00000E+01 0.00000E+00
 -1        67 1.35150E+02 5.00000E+01 0.00000E+00
 -1        68 1.38150E+02 5.00000E+01 0.00000E+00
 -1        69 1.41150E+02 5.00000E+01 0.00000E+00
 -1        70 1.44150E+02 5.00000E+01 0.00000E+00
 -1        71 1.47150E+02 5.00000E+01 0.00000E+00
 -1        72 3.15000E+00 0.00000E+00 0.00000E+00
 -1        73 6.15000E+00 0.00000E+00 0.00000E+00
 -1        74 9.15000E+00 0.00000E+00 0.00000E+00
 -1        75 1.21500E+01 0.00000E+00 0.00000E+00
 -1        76 1.51500E+01 0.00000E+00 0.00000E+00
 -1        77 1.81500E+01 0.00000E+00 0.00000E+00
 -1        78 2.11500E+01 0.00000E+00 0.00000E+00
 -1        79 2.41500E+01 0.00000E+00 0.00000E+00
 -1        80 2.71500E+01 0.00000E+00 0.00000E+00
 -1        81 3.01500E+01 0.00000E+00 0.00000E+00
 -1        82 3.31500E+01 0.00000E+00 0.00000E+00
 -1        83 3.61500E+01 0.00000E+00 0.00000E+00
 -1        84 3.91500E+01 0.00000E+00 0.00000E+00
 -1        85 4.21500E+01 0.00000E+00 0.00000E+00
 -1        86 4.51500E+01 0.00000E+00 0.00000E+00
 -1        87 4.81500E+01 0.00000E+00 0.00000E+00
 -1        88 5.11500E+01 0.00000E+00 0.00000E+00
 -1        89 5.41500E+01 0.00000E+00 0.00000E+00
 -1        90 5.68500E+01 0.00000E+00 0.00000E+00
 -1        91 5.95500E+01 0.00000E+00 0.00000E+00
 -1        92 6.19500E+01 0.00000E+00 0.00000E+00
 -1        93 6.43500E+01 0.00000E+00 0.00000E+00
 -1        94 6.66000E+01 0.00000E+00 0.00000E+00
 -1        95 6.91500E+01 0.00000E+00 0.00000E+00
 -1        96 7.18500E+01 0.00000E+00 0.00000E+00
 -1        97 7.48500E+01 0.00000E+00 0.00000E+00
 -1        98 7.78500E+01 0.00000E+00 0.00000E+00
 -1        99 8.10000E+01 0.00000E+00 0.00000E+00
 -1       100 8.40000E+01 0.00000E+00 0.00000E+00
 -1       101 8.70000E+01 0.00000E+00 0.00000E+00
 -1       102 9.00000E+01 0.00000E+00 0.00000E+00
 -1       103 9.30000E+01 0.00000E+00 0.00000E+00
 -1       104 9.60000E+01 0.00000E+00 0.00000E+00
 -1       105 9.90000E+01 0.00000E+00 0.00000E+00
 -1       106 1.02000E+02 0.00000E+00 0.00000E+00
 -1       107 1.05000E+02 0.00000E+00 0.00000E+00
 -1       108 1.08000E+02 0.00000E+00 0.00000E+00
 -1       109 1.11000E+02 0.00000E+00 0.00000E+00
 -1       110 1.14000E+02 0.00000E+00 0.00000E+00
 -1       111 1.17000E+02 0.00000E+00 0.00000E+00
 -1       112 1.20000E+02 0.00000E+00 0.00000E+00
 -1       113 1.23000E+02 0.00000E+00 0.00000E+00
 -1       114 1.26000E+02 0.00000E+00 0.00000E+00
 -1       115 1.29000E+02 0.00000E+00 0.00000E+00
 -1       116 1.32000E+02 0.00000E+00 0.00000E+00
 -1       117 1.35000E+02 0.00000E+00 0.00000E+00
 -1       118 1.38000E+02 0.00000E+00 0.00000E+00
 -1       119 1.41000E+02 0.00000E+00 0.00000E+00
 -1       120 1.44000E+02 0.00000E+00 0.00000E+00
 -1       121 1.47000E+02 0.00000E+00 0.00000E+00
 -1       122 1.50000E+02 2.95000E+00 0.00000E+00
 -1       123 1.50000E+02 5.90000E+00 0.00000E+00
 -1       124 1.50000E+02 8.85000E+00 0.00000E+00
 -1       125 1.50000E+02 1.18000E+01 0.00000E+00
 -1       126 1.50000E+02 1.47500E+01 0.00000E+00
 -1       127 1.50000E+02 1.76500E+01 0.00000E+00
 -1       128 1.50000E+02 2.06000E+01 0.00000E+00
 -1       129 1.50000E+02 2.35500E+01 0.00000E+00
 -1       130 1.50000E+02 2.65000E+01 0.00000E+00
 -1       131 1.50000E+02 2.94500E+01 0.00000E+00
 -1       132 1.50000E+02 3.24000E+01 0.00000E+00
 -1       133 1.50000E+02 3.53000E+01 0.00000E+00
 -1       134 1.50000E+02 3.82500E+01 0.00000E+00
 -1       135 1.50000E+02 4.12000E+01 0.00000E+00
 -1       136 1.50000E+02 4.41500E+01 0.00000E+00
 -1       137 1.50000E+02 4.71000E+01 0.00000E+00
 -1       138 6.85892E+01 1.13135E+01 0.00000E+00
 -1       139 6.81348E+01 9.96394E+00 0.00000E+00
 -1       140 6.74109E+01 8.72632E+00 0.00000E+00
 -1       141 6.63628E+01 7.58478E+00 0.00000E+00
 -1       142 6.50583E+01 6.68524E+00 0.00000E+00
 -1       143 6.37408E+01 6.14617E+00 0.00000E+00
 -1       144 6.22356E+01 5.87677E+00 0.00000E+00
 -1       145 6.08163E+01 5.92498E+00 0.00000E+00
 -1       146 5.93215E+01 6.30010E+00 0.00000E+00
 -1       147 5.80450E+01 6.92938E+00 0.00000E+00
 -1       148 5.69098E+01 7.81573E+00 0.00000E+00
 -1       149 5.59452E+01 8.96709E+00 0.00000E+00
 -1       150 5.52699E+01 1.02439E+01 0.00000E+00
 -1       151 5.48720E+01 1.16266E+01 0.00000E+00
 -1       152 5.47718E+01 1.32242E+01 0.00000E+00
 -1       153 5.49829E+01 1.46038E+01 0.00000E+00
 -1       154 5.54898E+01 1.59681E+01 0.00000E+00
 -1       155 5.73153E+01 1.82666E+01 0.00000E+00
 -1       156 5.84583E+01 1.90319E+01 0.00000E+00
 -1       157 5.97470E+01 1.95644E+01 0.00000E+00
 -1       158 6.11659E+01 1.98353E+01 0.00000E+00
 -1       159 6.26544E+01 1.98037E+01 0.00000E+00
 -1       160 6.40502E+01 1.94763E+01 0.00000E+00
 -1       161 6.53472E+01 1.88731E+01 0.00000E+00
 -1       162 6.65131E+01 1.80018E+01 0.00000E+00
 -1       163 6.74914E+01 1.68830E+01 0.00000E+00
 -1       164 6.82082E+01 1.55905E+01 0.00000E+00
 -1       165 6.86208E+01 1.42613E+01 0.00000E+00
 -1       166 2.59800E+00 4.55750E+01 0.00000E+00
 -1       167 2.59800E+00 4.26250E+01 0.00000E+00
 -1       168 2.59800E+00 3.96750E+01 0.00000E+00
 -1       169 2.59800E+00 3.67250E+01 0.00000E+00
 -1       170 2.59800E+00 3.38250E+01 0.00000E+00
 -1       171 2.59800E+00 3.08750E+01 0.00000E+00
 -1       172 2.59800E+00 2.79250E+01 0.00000E+00
 -1       173 2.59800E+00 2.49750E+01 0.00000E+00
 -1       174 2.59800E+00 2.20250E+01 0.00000E+00
 -1       175 2.59800E+00 1.90750E+01 0.00000E+00
 -1       176 2.59800E+00 1.61750E+01 0.00000E+00
 -1       177 2.59800E+00 1.32250E+01 0.00000E+00
 -1       178 2.59800E+00 1.02750E+01 0.00000E+00
 -1       179 2.59800E+00 7.32500E+00 0.00000E+00
 -1       180 2.59800E+00 4.37500E+00 0.00000E+00
 -1       181 2.87400E+00 2.18750E+00 0.00000E+00
 -1       182 4.65000E+00 4.74020E+01 0.00000E+00
 -1       183 7.65000E+00 4.74020E+01 0.00000E+00
 -1       184 1.06500E+01 4.74020E+01 0.00000E+00
 -1       185 1.36500E+01 4.74020E+01 0.00000E+00
 -1       186 1.66500E+01 4.74020E+01 0.00000E+00
 -1       187 1.96500E+01 4.74020E+01 0.00000E+00
 -1       188 2.26500E+01 4.74020E+01 0.00000E+00
 -1       189 2.56500E+01 4.74020E+01 0.00000E+00
 -1       190 2.86500E+01 4.74020E+01 0.00000E+00
 -1       191 3.16500E+01 4.74020E+01 0.00000E+00
 -1       192 3.46500E+01 4.74020E+01 0.00000E+00
 -1       193 3.76500E+01 4.74020E+01 0.00000E+00
 -1       194 4.06500E+01 4.74020E+01 0.00000E+00
 -1       195 4.36500E+01 4.74020E+01 0.00000E+00
 -1       196 4.66500E+01 4.74020E+01 0.00000E+00
 -1       197 4.96500E+01 4.74020E+01 0.00000E+00
 -1       198 5.26500E+01 4.74020E+01 0.00000E+00
 -1       199 5.56500E+01 4.74020E+01 0.00000E+00
 -1       200 5.86500E+01 4.74020E+01 0.00000E+00
 -1       201 6.16500E+01 4.74020E+01 0.00000E+00
 -1       202 6.46500E+01 4.74020E+01 0.00000E+00
 -1       203 6.76500E+01 4.74020E+01 0.00000E+00
 -1       204 7.06500E+01 4.74020E+01 0.00000E+00
 -1       205 7.36500E+01 4.74020E+01 0.00000E+00
 -1       206 7.66500E+01 4.74020E+01 0.00000E+00
 -1       207 7.96500E+01 4.74020E+01 0.00000E+00
 -1       208 8.26500E+01 4.74020E+01 0.00000E+00
 -1       209 8.56500E+01 4.74020E+01 0.00000E+00
 -1       210 8.86500E+01 4.74020E+01 0.00000E+00
 -1       211 9.16500E+01 4.74020E+01 0.00000E+00
 -1       212 9.46500E+01 4.74020E+01 0.00000E+00
 -1       213 9.76500E+01 4.74020E+01 0.00000E+00
 -1       214 1.00650E+02 4.74020E+01 0.00000E+00
 -1       215 1.03650E+02 4.74020E+01 0.00000E+00
 -1       216 1.06650E+02 4.74020E+01 0.00000E+00
 -1       217 1.09650E+02 4.74020E+01 0.00000E+00
 -1       218 1.12650E+02 4.74020E+01 0.00000E+00
 -1       219 1.15650E+02 4.74020E+01 0.00000E+00
 -1       220 1.18650E+02 4.74020E+01 0.00000E+00
 -1       221 1.21650E+02 4.74020E+01 0.00000E+00
 -1       222 1.24650E+02 4.74020E+01 0.00000E+00
 -1       223 1.27650E+02 4.74020E+01 0.00000E+00
 -1       224 1.30650E+02 4.74020E+01 0.00000E+00
 -1       225 1.33650E+02 4.74020E+01 0.00000E+00
 -1       226 1.36650E+02 4.74020E+01 0.00000E+00
 -1       227 1.39650E+02 4.74020E+01 0.00000E+00
 -1       228 1.42650E+02 4.74020E+01 0.00000E+00
 -1       229 1.45650E+02 4.74020E+01 0.00000E+00
 -1       230 5.87400E+00 2.18750E+00 0.00000E+00
 -1       231 8.87400E+00 2.18750E+00 0.00000E+00
 -1       232 1.18740E+01 2.18750E+00 0.00000E+00
 -1       233 1.48740E+01 2.18750E+00 0.00000E+00
 -1       234 1.78740E+01 2.18750E+00 0.00000E+00
 -1       235 2.08740E+01 2.18750E+00 0.00000E+00
 -1       236 2.38740E+01 2.18750E+00 0.00000E+00
 -1       237 2.68740E+01 2.18750E+00 0.00000E+00
 -1       238 2.98740E+01 2.18750E+00 0.00000E+00
 -1       239 3.28740E+01 2.18750E+00 0.00000E+00
 -1       240 3.58740E+01 2.18750E+00 0.00000E+00
 -1       241 3.88740E+01 2.18750E+00 0.00000E+00
 -1       242 4.18740E+01 2.18750E+00 0.00000E+00
 -1       243 4.48740E+01 2.18750E+00 0.00000E+00
 -1       244 4.78740E+01 2.18750E+00 0.00000E+00
 -1       245 5.08740E+01 2.18750E+00 0.00000E+00
 -1       246 5.38740E+01 2.18750E+00 0.00000E+00
 -1       247 5.65740E+01 2.18750E+00 0.00000E+00
 -1       248 5.92740E+01 2.18750E+00 0.00000E+00
 -1       249 6.16740E+01 2.18750E+00 0.00000E+00
 -1       250 6.40740E+01 2.18750E+00 0.00000E+00
 -1       251 6.63240E+01 2.18750E+00 0.00000E+00
 -1       252 6.88740E+01 2.18750E+00 0.00000E+00
 -1       253 7.15740E+01 2.18750E+00 0.00000E+00
 -1       254 7.45740E+01 2.18750E+00 0.00000E+00
 -1       255 7.75740E+01 2.18750E+00 0.00000E+00
 -1       256 8.07240E+01 2.18750E+00 0.00000E+00
 -1       257 8.37240E+01 2.18750E+00 0.00000E+00
 -1       258 8.67240E+01 2.18750E+00 0.00000E+00
 -1       259 8.97240E+01 2.18750E+00 0.00000E+00
 -1       260 9.27240E+01 2.18750E+00 0.00000E+00
 -1       261 9.57240E+01 2.18750E+00 0.00000E+00
 -1       262 9.87240E+01 2.18750E+00 0.00000E+00
 -1       263 1.01724E+02 2.18750E+00 0.00000E+00
 -1       264 1.04724E+02 2.18750E+00 0.00000E+00
 -1       265 1.07724E+02 2.18750E+00 0.00000E+00
 -1       266 1.10724E+02 2.18750E+00 0.00000E+00
 -1       267 1.13724E+02 2.18750E+00 0.00000E+00
 -1       268 1.16724E+02 2.18750E+00 0.00000E+00
 -1       269 1.19724E+02 2.18750E+00 0.00000E+00
 -1       270 1.22724E+02 2.18750E+00 0.00000E+00
 -1       271 1.25724E+02 2.18750E+00 0.00000E+00
 -1       272 1.28724E+02 2.18750E+00 0.00000E+00
 -1       273 1.31724E+02 2.18750E+00 0.00000E+00
 -1       274 1.34724E+02 2.18750E+00 0.00000E+00
 -1       275 1.37724E+02 2.18750E+00 0.00000E+00
 -1       276 1.40724E+02 2.18750E+00 0.00000E+00
 -1       277 1.43724E+02 2.18750E+00 0.00000E+00
 -1       278 1.46724E+02 2.18750E+00 0.00000E+00
 -1       279 1.47402E+02 4.42500E+00 0.00000E+00
 -1       280 1.47402E+02 7.37500E+00 0.00000E+00
 -1       281 1.47402E+02 1.03250E+01 0.00000E+00
 -1       282 1.47402E+02 1.32750E+01 0.00000E+00
 -1       283 1.47402E+02 1.61750E+01 0.00000E+00
 -1       284 1.47402E+02 1.91250E+01 0.00000E+00
 -1       285 1.47402E+02 2.20750E+01 0.00000E+00
 -1       286 1.47402E+02 2.50250E+01 0.00000E+00
 -1       287 1.47402E+02 2.79750E+01 0.00000E+00
 -1       288 1.47402E+02 3.09250E+01 0.00000E+00
 -1       289 1.47402E+02 3.38250E+01 0.00000E+00
 -1       290 1.47402E+02 3.67750E+01 0.00000E+00
 -1       291 1.47402E+02 3.97250E+01 0.00000E+00
 -1       292 1.47402E+02 4.26750E+01 0.00000E+00
 -1       293 1.46526E+02 4.50385E+01 0.00000E+00
 -1       294 7.00472E+01 1.19336E+01 0.00000E+00
 -1       295 6.95905E+01 1.02251E+01 0.00000E+00
 -1       296 6.88194E+01 8.73301E+00 0.00000E+00
 -1       297 6.80268E+01 7.10891E+00 0.00000E+00
 -1       298 6.65890E+01 5.86099E+00 0.00000E+00
 -1       299 6.48587E+01 5.29361E+00 0.00000E+00
 -1       300 6.32313E+01 4.65308E+00 0.00000E+00
 -1       301 6.14848E+01 4.68917E+00 0.00000E+00
 -1       302 5.97330E+01 4.77407E+00 0.00000E+00
 -1       303 5.81472E+01 5.52730E+00 0.00000E+00
 -1       304 5.67313E+01 6.41693E+00 0.00000E+00
 -1       305 5.53697E+01 7.50521E+00 0.00000E+00
 -1       306 5.45358E+01 9.03866E+00 0.00000E+00
 -1       307 5.38253E+01 1.05768E+01 0.00000E+00
 -1       308 5.32774E+01 1.23285E+01 0.00000E+00
 -1       309 5.36789E+01 1.40973E+01 0.00000E+00
 -1       310 5.40999E+01 1.57083E+01 0.00000E+00
 -1       311 5.47477E+01 1.73662E+01 0.00000E+00
 -1       312 5.59615E+01 1.86242E+01 0.00000E+00
 -1       313 5.72123E+01 1.96567E+01 0.00000E+00
 -1       314 5.86397E+01 2.04187E+01 0.00000E+00
 -1       315 6.02134E+01 2.09730E+01 0.00000E+00
 -1       316 6.19394E+01 2.11992E+01 0.00000E+00
 -1       317 6.36483E+01 2.09019E+01 0.00000E+00
 -1       318 6.52100E+01 2.02740E+01 0.00000E+00
 -1       319 6.66559E+01 1.94086E+01 0.00000E+00
 -1       320 6.81041E+01 1.84059E+01 0.00000E+00
 -1       321 6.89833E+01 1.68654E+01 0.00000E+00
 -1       322 6.95724E+01 1.52854E+01 0.00000E+00
 -1       323 6.98978E+01 1.36829E+01 0.00000E+00
 -1       324 5.19600E+00 4.11500E+01 0.00000E+00
 -1       325 5.19600E+00 4.41000E+01 0.00000E+00
 -1       326 5.19600E+00 3.52750E+01 0.00000E+00
 -1       327 5.19600E+00 3.23250E+01 0.00000E+00
 -1       328 5.19600E+00 2.93750E+01 0.00000E+00
 -1       329 5.19600E+00 2.64250E+01 0.00000E+00
 -1       330 5.19600E+00 2.34750E+01 0.00000E+00
 -1       331 5.19600E+00 2.05250E+01 0.00000E+00
 -1       332 5.19600E+00 1.76250E+01 0.00000E+00
 -1       333 5.19600E+00 1.46750E+01 0.00000E+00
 -1       334 5.19600E+00 1.17250E+01 0.00000E+00
 -1       335 5.19600E+00 8.77500E+00 0.00000E+00
 -1       336 5.19600E+00 5.82500E+00 0.00000E+00
 -1       337 5.53500E+00 4.00625E+00 0.00000E+00
 -1       338 8.53500E+00 4.00625E+00 0.00000E+00
 -1       339 9.15000E+00 4.48040E+01 0.00000E+00
 -1       340 1.21500E+01 4.48040E+01 0.00000E+00
 -1       341 1.51500E+01 4.48040E+01 0.00000E+00
 -1       342 1.81500E+01 4.48040E+01 0.00000E+00
 -1       343 2.11500E+01 4.48040E+01 0.00000E+00
 -1       344 2.41500E+01 4.48040E+01 0.00000E+00
 -1       345 2.71500E+01 4.48040E+01 0.00000E+00
 -1       346 3.01500E+01 4.48040E+01 0.00000E+00
 -1       347 3.31500E+01 4.48040E+01 0.00000E+00
 -1       348 3.61500E+01 4.48040E+01 0.00000E+00
 -1       349 3.91500E+01 4.48040E+01 0.00000E+00
 -1       350 4.21500E+01 4.48040E+01 0.00000E+00
 -1       351 4.51500E+01 4.48040E+01 0.00000E+00
 -1       352 4.81500E+01 4.48040E+01 0.00000E+00
 -1       353 5.11500E+01 4.48040E+01 0.00000E+00
 -1       354 5.41500E+01 4.48040E+01 0.00000E+00
 -1       355 5.71500E+01 4.48040E+01 0.00000E+00
 -1       356 6.01500E+01 4.48040E+01 0.00000E+00
 -1       357 6.31500E+01 4.48040E+01 0.00000E+00
 -1       358 6.61500E+01 4.48040E+01 0.00000E+00
 -1       359 6.91500E+01 4.48040E+01 0.00000E+00
 -1       360 7.21500E+01 4.48040E+01 0.00000E+00
 -1       361 7.51500E+01 4.48040E+01 0.00000E+00
 -1       362 7.81500E+01 4.48040E+01 0.00000E+00
 -1       363 8.11500E+01 4.48040E+01 0.00000E+00
 -1       364 8.41500E+01 4.48040E+01 0.00000E+00
 -1       365 8.71500E+01 4.48040E+01 0.00000E+00
 -1       366 9.01500E+01 4.48040E+01 0.00000E+00
 -1       367 9.31500E+01 4.48040E+01 0.00000E+00
 -1       368 9.61500E+01 4.48040E+01 0.00000E+00
 -1       369 9.91500E+01 4.48040E+01 0.00000E+00
 -1       370 1.02150E+02 4.48040E+01 0.00000E+00
 -1       371 1.05150E+02 4.48040E+01 0.00000E+00
 -1       372 1.08150E+02 4.48040E+01 0.00000E+00
 -1       373 1.11150E+02 4.48040E+01 0.00000E+00
 -1       374 1.14150E+02 4.48040E+01 0.00000E+00
 -1       375 1.17150E+02 4.48040E+01 0.00000E+00
 -1       376 1.20150E+02 4.48040E+01 0.00000E+00
 -1       377 1.23150E+02 4.48040E+01 0.00000E+00
 -1       378 1.26150E+02 4.48040E+01 0.00000E+00
 -1       379 1.29150E+02 4.48040E+01 0.00000E+00
 -1       380 1.32150E+02 4.48040E+01 0.00000E+00
 -1       381 1.35150E+02 4.48040E+01 0.00000E+00
 -1       382 1.38150E+02 4.48040E+01 0.00000E+00
 -1       383 1.41150E+02 4.48040E+01 0.00000E+00
 -1       384 1.43838E+02 4.49212E+01 0.00000E+00
 -1       385 1.15350E+01 4.00625E+00 0.00000E+00
 -1       386 1.45350E+01 4.00625E+00 0.00000E+00
 -1       387 1.75350E+01 4.00625E+00 0.00000E+00
 -1       388 2.05350E+01 4.00625E+00 0.00000E+00
 -1       389 2.35350E+01 4.00625E+00 0.00000E+00
 -1       390 2.65350E+01 4.00625E+00 0.00000E+00
 -1       391 2.95350E+01 4.00625E+00 0.00000E+00
 -1       392 3.25350E+01 4.00625E+00 0.00000E+00
 -1       393 3.55350E+01 4.00625E+00 0.00000E+00
 -1       394 3.85350E+01 4.00625E+00 0.00000E+00
 -1       395 4.15350E+01 4.00625E+00 0.00000E+00
 -1       396 4.45350E+01 4.00625E+00 0.00000E+00
 -1       397 4.75350E+01 4.00625E+00 0.00000E+00
 -1       398 5.05350E+01 4.00625E+00 0.00000E+00
 -1       399 5.35350E+01 4.00625E+00 0.00000E+00
 -1       400 5.79240E+01 4.07018E+00 0.00000E+00
 -1       401 6.75990E+01 4.23776E+00 0.00000E+00
 -1       402 7.02990E+01 4.23776E+00 0.00000E+00
 -1       403 7.32990E+01 4.23776E+00 0.00000E+00
 -1       404 7.62990E+01 4.23776E+00 0.00000E+00
 -1       405 7.94490E+01 4.23776E+00 0.00000E+00
 -1       406 8.24490E+01 4.23776E+00 0.00000E+00
 -1       407 8.54490E+01 4.23776E+00 0.00000E+00
 -1       408 8.84490E+01 4.23776E+00 0.00000E+00
 -1       409 9.14490E+01 4.23776E+00 0.00000E+00
 -1       410 9.44490E+01 4.23776E+00 0.00000E+00
 -1       411 9.74490E+01 4.23776E+00 0.00000E+00
 -1       412 1.00449E+02 4.23776E+00 0.00000E+00
 -1       413 1.03449E+02 4.23776E+00 0.00000E+00
 -1       414 1.06449E+02 4.23776E+00 0.00000E+00
 -1       415 1.09449E+02 4.23776E+00 0.00000E+00
 -1       416 1.12449E+02 4.23776E+00 0.00000E+00
 -1       417 1.15449E+02 4.23776E+00 0.00000E+00
 -1       418 1.18449E+02 4.23776E+00 0.00000E+00
 -1       419 1.21449E+02 4.23776E+00 0.00000E+00
 -1       420 1.24449E+02 4.23776E+00 0.00000E+00
 -1       421 1.27449E+02 4.23776E+00 0.00000E+00
 -1       422 1.30449E+02 4.23776E+00 0.00000E+00
 -1       423 1.33449E+02 4.23776E+00 0.00000E+00
 -1       424 1.36449E+02 4.23776E+00 0.00000E+00
 -1       425 1.39449E+02 4.23776E+00 0.00000E+00
 -1       426 1.42449E+02 4.23776E+00 0.00000E+00
 -1       427 1.44926E+02 4.33138E+00 0.00000E+00
 -1       428 1.44804E+02 1.18000E+01 0.00000E+00
 -1       429 1.44804E+02 8.85000E+00 0.00000E+00
 -1       430 1.44865E+02 6.59069E+00 0.00000E+00
 -1       431 1.44804E+02 1.47000E+01 0.00000E+00
 -1       432 1.44804E+02 1.76500E+01 0.00000E+00
 -1       433 1.44804E+02 2.06000E+01 0.00000E+00
 -1       434 1.44804E+02 2.35500E+01 0.00000E+00
 -1       435 1.44804E+02 2.65000E+01 0.00000E+00
 -1       436 1.44804E+02 2.94500E+01 0.00000E+00
 -1       437 1.44804E+02 3.23500E+01 0.00000E+00
 -1       438 1.44804E+02 3.53000E+01 0.00000E+00
 -1       439 1.44804E+02 3.82500E+01 0.00000E+00
 -1       440 1.44804E+02 4.12000E+01 0.00000E+00
 -1       441 7.04309E+01 8.84554E+00 0.00000E+00
 -1       442 7.16814E+01 1.29542E+01 0.00000E+00
 -1       443 7.12329E+01 1.07013E+01 0.00000E+00
 -1       444 6.96383E+01 7.22144E+00 0.00000E+00
 -1       445 6.82005E+01 5.97352E+00 0.00000E+00
 -1       446 5.19600E+00 3.82125E+01 0.00000E+00
 -1       447 5.65081E+01 4.95981E+00 0.00000E+00
 -1       448 5.51465E+01 6.04810E+00 0.00000E+00
 -1       449 5.35932E+01 7.53263E+00 0.00000E+00
 -1       450 5.28827E+01 9.07079E+00 0.00000E+00
 -1       451 5.20743E+01 1.09906E+01 0.00000E+00
 -1       452 5.22141E+01 1.34998E+01 0.00000E+00
 -1       453 5.24732E+01 1.52729E+01 0.00000E+00
 -1       454 5.31210E+01 1.69308E+01 0.00000E+00
 -1       455 5.44218E+01 1.88952E+01 0.00000E+00
 -1       456 5.57618E+01 2.01401E+01 0.00000E+00
 -1       457 5.73156E+01 2.11812E+01 0.00000E+00
 -1       458 5.89959E+01 2.19184E+01 0.00000E+00
 -1       459 6.08754E+01 2.26205E+01 0.00000E+00
 -1       460 6.30590E+01 2.25752E+01 0.00000E+00
 -1       461 6.50689E+01 2.21793E+01 0.00000E+00
 -1       462 6.65149E+01 2.13139E+01 0.00000E+00
 -1       463 6.81656E+01 2.00419E+01 0.00000E+00
 -1       464 6.98878E+01 1.84027E+01 0.00000E+00
 -1       465 7.08064E+01 1.66453E+01 0.00000E+00
 -1       466 7.10054E+01 1.47422E+01 0.00000E+00
 -1       467 6.61538E+01 4.26603E+00 0.00000E+00
 -1       468 6.01198E+01 3.32795E+00 0.00000E+00
 -1       469 6.52756E+01 3.97496E+00 0.00000E+00
 -1       470 5.52240E+01 4.40532E+00 0.00000E+00
 -1       471 5.27951E+01 1.84598E+01 0.00000E+00
 -1       472 5.10111E+01 1.21620E+01 0.00000E+00
 -1       473 1.00350E+01 6.60425E+00 0.00000E+00
 -1       474 7.79400E+00 3.08500E+01 0.00000E+00
 -1       475 7.79400E+00 3.38000E+01 0.00000E+00
 -1       476 7.79400E+00 2.49500E+01 0.00000E+00
 -1       477 7.79400E+00 2.20000E+01 0.00000E+00
 -1       478 7.79400E+00 1.91000E+01 0.00000E+00
 -1       479 7.79400E+00 1.61500E+01 0.00000E+00
 -1       480 7.79400E+00 1.32000E+01 0.00000E+00
 -1       481 7.79400E+00 1.02500E+01 0.00000E+00
 -1       482 7.17990E+01 6.83576E+00 0.00000E+00
 -1       483 7.47990E+01 6.83576E+00 0.00000E+00
 -1       484 1.30350E+01 6.60425E+00 0.00000E+00
 -1       485 1.06500E+01 4.22060E+01 0.00000E+00
 -1       486 7.92300E+00 4.16780E+01 0.00000E+00
 -1       487 7.31393E+01 1.14929E+01 0.00000E+00
 -1       488 1.36500E+01 4.22060E+01 0.00000E+00
 -1       489 1.66500E+01 4.22060E+01 0.00000E+00
 -1       490 1.96500E+01 4.22060E+01 0.00000E+00
 -1       491 2.26500E+01 4.22060E+01 0.00000E+00
 -1       492 2.56500E+01 4.22060E+01 0.00000E+00
 -1       493 2.86500E+01 4.22060E+01 0.00000E+00
 -1       494 3.16500E+01 4.22060E+01 0.00000E+00
 -1       495 3.46500E+01 4.22060E+01 0.00000E+00
 -1       496 3.76500E+01 4.22060E+01 0.00000E+00
 -1       497 4.06500E+01 4.22060E+01 0.00000E+00
 -1       498 4.36500E+01 4.22060E+01 0.00000E+00
 -1       499 4.66500E+01 4.22060E+01 0.00000E+00
 -1       500 4.96500E+01 4.22060E+01 0.00000E+00
 -1       501 5.26500E+01 4.22060E+01 0.00000E+00
 -1       502 5.56500E+01 4.22060E+01 0.00000E+00
 -1       503 5.86500E+01 4.22060E+01 0.00000E+00
 -1       504 6.16500E+01 4.22060E+01 0.00000E+00
 -1       505 6.46500E+01 4.22060E+01 0.00000E+00
 -1       506 6.76500E+01 4.22060E+01 0.00000E+00
 -1       507 7.06500E+01 4.22060E+01 0.00000E+00
 -1       508 7.36500E+01 4.22060E+01 0.00000E+00
 -1       509 7.66500E+01 4.22060E+01 0.00000E+00
 -1       510 7.96500E+01 4.22060E+01 0.00000E+00
 -1       511 8.26500E+01 4.22060E+01 0.00000E+00
 -1       512 8.56500E+01 4.22060E+01 0.00000E+00
 -1       513 8.86500E+01 4.22060E+01 0.00000E+00
 -1       514 9.16500E+01 4.22060E+01 0.00000E+00
 -1       515 9.46500E+01 4.22060E+01 0.00000E+00
 -1       516 9.76500E+01 4.22060E+01 0.00000E+00
 -1       517 1.00650E+02 4.22060E+01 0.00000E+00
 -1       518 1.03650E+02 4.22060E+01 0.00000E+00
 -1       519 1.06650E+02 4.22060E+01 0.00000E+00
 -1       520 1.09650E+02 4.22060E+01 0.00000E+00
 -1       521 1.12650E+02 4.22060E+01 0.00000E+00
 -1       522 1.15650E+02 4.22060E+01 0.00000E+00
 -1       523 1.18650E+02 4.22060E+01 0.00000E+00
 -1       524 1.21650E+02 4.22060E+01 0.00000E+00
 -1       525 1.24650E+02 4.22060E+01 0.00000E+00
 -1       526 1.27650E+02 4.22060E+01 0.00000E+00
 -1       527 1.30650E+02 4.22060E+01 0.00000E+00
 -1       528 1.33650E+02 4.22060E+01 0.00000E+00
 -1       529 1.36650E+02 4.22060E+01 0.00000E+00
 -1       530 1.39650E+02 4.22060E+01 0.00000E+00
 -1       531 1.90350E+01 6.60425E+00 0.00000E+00
 -1       532 2.20350E+01 6.60425E+00 0.00000E+00
 -1       533 2.50350E+01 6.60425E+00 0.00000E+00
 -1       534 2.80350E+01 6.60425E+00 0.00000E+00
 -1       535 3.10350E+01 6.60425E+00 0.00000E+00
 -1       536 3.40350E+01 6.60425E+00 0.00000E+00
 -1       537 3.70350E+01 6.60425E+00 0.00000E+00
 -1       538 4.00350E+01 6.60425E+00 0.00000E+00
 -1       539 4.30350E+01 6.60425E+00 0.00000E+00
 -1       540 4.60350E+01 6.60425E+00 0.00000E+00
 -1       541 4.90350E+01 6.60425E+00 0.00000E+00
 -1       542 7.79490E+01 6.83576E+00 0.00000E+00
 -1       543 8.09490E+01 6.83576E+00 0.00000E+00
 -1       544 8.39490E+01 6.83576E+00 0.00000E+00
 -1       545 8.69490E+01 6.83576E+00 0.00000E+00
 -1       546 8.99490E+01 6.83576E+00 0.00000E+00
 -1       547 9.29490E+01 6.83576E+00 0.00000E+00
 -1       548 9.59490E+01 6.83576E+00 0.00000E+00
 -1       549 9.89490E+01 6.83576E+00 0.00000E+00
 -1       550 1.01949E+02 6.83576E+00 0.00000E+00
 -1       551 1.04949E+02 6.83576E+00 0.00000E+00
 -1       552 1.07949E+02 6.83576E+00 0.00000E+00
 -1       553 1.10949E+02 6.83576E+00 0.00000E+00
 -1       554 1.13949E+02 6.83576E+00 0.00000E+00
 -1       555 1.16949E+02 6.83576E+00 0.00000E+00
 -1       556 1.19949E+02 6.83576E+00 0.00000E+00
 -1       557 1.22949E+02 6.83576E+00 0.00000E+00
 -1       558 1.25949E+02 6.83576E+00 0.00000E+00
 -1       559 1.28949E+02 6.83576E+00 0.00000E+00
 -1       560 1.31949E+02 6.83576E+00 0.00000E+00
 -1       561 1.34949E+02 6.83576E+00 0.00000E+00
 -1       562 1.37949E+02 6.83576E+00 0.00000E+00
 -1       563 1.40949E+02 6.83576E+00 0.00000E+00
 -1       564 1.42206E+02 1.61750E+01 0.00000E+00
 -1       565 1.42206E+02 1.91250E+01 0.00000E+00
 -1       566 1.42206E+02 1.03250E+01 0.00000E+00
 -1       567 1.42206E+02 1.32500E+01 0.00000E+00
 -1       568 1.42206E+02 2.20750E+01 0.00000E+00
 -1       569 1.42206E+02 2.50250E+01 0.00000E+00
 -1       570 1.42206E+02 2.79750E+01 0.00000E+00
 -1       571 1.42206E+02 3.08750E+01 0.00000E+00
 -1       572 1.42206E+02 3.38250E+01 0.00000E+00
 -1       573 1.42206E+02 3.67750E+01 0.00000E+00
 -1       574 1.42206E+02 3.97250E+01 0.00000E+00
 -1       575 7.27909E+01 1.43955E+01 0.00000E+00
 -1       576 1.60350E+01 6.60425E+00 0.00000E+00
 -1       577 7.21756E+01 9.19275E+00 0.00000E+00
 -1       578 7.25919E+01 1.62986E+01 0.00000E+00
 -1       579 6.44278E+01 2.42245E+01 0.00000E+00
 -1       580 5.08124E+01 1.46101E+01 0.00000E+00
 -1       581 7.79400E+00 2.79000E+01 0.00000E+00
 -1       582 5.08978E+01 9.36512E+00 0.00000E+00
 -1       583 5.16083E+01 7.82696E+00 0.00000E+00