    1C
    1UUSER                                                              
    1UDATE              27.october.2022                                 
    1UTIME              00:41:51                                        
    1UHOST                                                              
    1UPGM               CalculiX                                        
    1UVERSION           Version 2.17                             
    1UCOMPILETIME       Thu Jul 23 21:43:50 CEST 2020                    
    1UDIR                                                               
    1UDBN                                                               
    1UMAT    1SOLIDMATERIAL                                             
    2C                          4348                                     1
 -1         1 1.11812E+02 3.19726E+01 0.00000E+00
 -1         2 1.17603E+02 2.50777E+01 0.00000E+00
 -1         3 1.50000E+02 0.00000E+00 0.00000E+00
 -1         4 1.50000E+02 5.00000E+01 0.00000E+00
 -1         5 0.00000E+00 0.00000E+00 0.00000E+00
 -1         6 0.00000E+00 5.00000E+01 0.00000E+00
 -1         7 0.00000E+00 4.70500E+01 0.00000E+00
 -1         8 0.00000E+00 4.41000E+01 0.00000E+00
 -1         9 0.00000E+00 4.11500E+01 0.00000E+00
 -1        10 0.00000E+00 3.82000E+01 0.00000E+00
 -1        11 0.00000E+00 3.52500E+01 0.00000E+00
 -1        12 0.00000E+00 3.23500E+01 0.00000E+00
 -1        13 0.00000E+00 2.94000E+01 0.00000E+00
 -1        14 0.00000E+00 2.64500E+01 0.00000E+00
 -1        15 0.00000E+00 2.35000E+01 0.00000E+00
 -1        16 0.00000E+00 2.05500E+01 0.00000E+00
 -1        17 0.00000E+00 1.76000E+01 0.00000E+00
 -1        18 0.00000E+00 1.47000E+01 0.00000E+00
 -1        19 0.00000E+00 1.17500E+01 0.00000E+00
 -1        20 0.00000E+00 8.80000E+00 0.00000E+00
 -1        21 0.00000E+00 5.85000E+00 0.00000E+00
 -1        22 0.00000E+00 2.90000E+00 0.00000E+00
 -1        23 3.15000E+00 5.00000E+01 0.00000E+00
 -1        24 6.15000E+00 5.00000E+01 0.00000E+00
 -1        25 9.15000E+00 5.00000E+01 0.00000E+00
 -1        26 1.21500E+01 5.00000E+01 0.00000E+00
 -1        27 1.51500E+01 5.00000E+01 0.00000E+00
 -1        28 1.81500E+01 5.00000E+01 0.00000E+00
 -1        29 2.11500E+01 5.00000E+01 0.00000E+00
 -1        30 2.41500E+01 5.00000E+01 0.00000E+00
 -1        31 2.71500E+01 5.00000E+01 0.00000E+00
 -1        32 3.01500E+01 5.00000E+01 0.00000E+00
 -1        33 3.31500E+01 5.00000E+01 0.00000E+00
 -1        34 3.61500E+01 5.00000E+01 0.00000E+00
 -1        35 3.91500E+01 5.00000E+01 0.00000E+00
 -1        36 4.21500E+01 5.00000E+01 0.00000E+00
 -1        37 4.51500E+01 5.00000E+01 0.00000E+00
 -1        38 4.81500E+01 5.00000E+01 0.00000E+00
 -1        39 5.11500E+01 5.00000E+01 0.00000E+00
 -1        40 5.41500E+01 5.00000E+01 0.00000E+00
 -1        41 5.71500E+01 5.00000E+01 0.00000E+00
 -1        42 6.01500E+01 5.00000E+01 0.00000E+00
 -1        43 6.31500E+01 5.00000E+01 0.00000E+00
 -1        44 6.61500E+01 5.00000E+01 0.00000E+00
 -1        45 6.91500E+01 5.00000E+01 0.00000E+00
 -1        46 7.21500E+01 5.00000E+01 0.00000E+00
 -1        47 7.51500E+01 5.00000E+01 0.00000E+00
 -1        48 7.81500E+01 5.00000E+01 0.00000E+00
 -1        49 8.11500E+01 5.00000E+01 0.00000E+00
 -1        50 8.41500E+01 5.00000E+01 0.00000E+00
 -1        51 8.71500E+01 5.00000E+01 0.00000E+00
 -1        52 9.01500E+01 5.00000E+01 0.00000E+00
 -1        53 9.31500E+01 5.00000E+01 0.00000E+00
 -1        54 9.61500E+01 5.00000E+01 0.00000E+00
 -1        55 9.91500E+01 5.00000E+01 0.00000E+00
 -1        56 1.02150E+02 5.00000E+01 0.00000E+00
 -1        57 1.05150E+02 5.00000E+01 0.00000E+00
 -1        58 1.08150E+02 5.00000E+01 0.00000E+00
 -1        59 1.11150E+02 5.00000E+01 0.00000E+00
 -1        60 1.14150E+02 5.00000E+01 0.00000E+00
 -1        61 1.17150E+02 5.00000E+01 0.00000E+00
 -1        62 1.20150E+02 5.00000E+01 0.00000E+00
 -1        63 1.23150E+02 5.00000E+01 0.00000E+00
 -1        64 1.26150E+02 5.00000E+01 0.00000E+00
 -1        65 1.29150E+02 5.00000E+01 0.00000E+00
 -1        66 1.32150E+02 5.00000E+01 0.00000E+00
 -1        67 1.35150E+02 5.00000E+01 0.00000E+00
 -1        68 1.38150E+02 5.00000E+01 0.00000E+00
 -1        69 1.41150E+02 5.00000E+01 0.00000E+00
 -1        70 1.44150E+02 5.00000E+01 0.00000E+00
 -1        71 1.47150E+02 5.00000E+01 0.00000E+00
 -1        72 3.15000E+00 0.00000E+00 0.00000E+00
 -1        73 6.15000E+00 0.00000E+00 0.00000E+00
 -1        74 9.15000E+00 0.00000E+00 0.00000E+00
 -1        75 1.21500E+01 0.00000E+00 0.00000E+00
 -1        76 1.51500E+01 0.00000E+00 0.00000E+00
 -1        77 1.81500E+01 0.00000E+00 0.00000E+00
 -1        78 2.11500E+01 0.00000E+00 0.00000E+00
 -1        79 2.41500E+01 0.00000E+00 0.00000E+00
 -1        80 2.71500E+01 0.00000E+00 0.00000E+00
 -1        81 3.01500E+01 0.00000E+00 0.00000E+00
 -1        82 3.31500E+01 0.00000E+00 0.00000E+00
 -1        83 3.61500E+01 0.00000E+00 0.00000E+00
 -1        84 3.91500E+01 0.00000E+00 0.00000E+00
 -1        85 4.21500E+01 0.00000E+00 0.00000E+00
 -1        86 4.51500E+01 0.00000E+00 0.00000E+00
 -1        87 4.81500E+01 0.00000E+00 0.00000E+00
 -1        88 5.11500E+01 0.00000E+00 0.00000E+00
 -1        89 5.41500E+01 0.00000E+00 0.00000E+00
 -1        90 5.71500E+01 0.00000E+00 0.00000E+00
 -1        91 6.01500E+01 0.00000E+00 0.00000E+00
 -1        92 6.31500E+01 0.00000E+00 0.00000E+00
 -1        93 6.61500E+01 0.00000E+00 0.00000E+00
 -1        94 6.91500E+01 0.00000E+00 0.00000E+00
 -1        95 7.21500E+01 0.00000E+00 0.00000E+00
 -1        96 7.51500E+01 0.00000E+00 0.00000E+00
 -1        97 7.81500E+01 0.00000E+00 0.00000E+00
 -1        98 8.11500E+01 0.00000E+00 0.00000E+00
 -1        99 8.41500E+01 0.00000E+00 0.00000E+00
 -1       100 8.71500E+01 0.00000E+00 0.00000E+00
 -1       101 9.01500E+01 0.00000E+00 0.00000E+00
 -1       102 9.31500E+01 0.00000E+00 0.00000E+00
 -1       103 9.61500E+01 0.00000E+00 0.00000E+00
 -1       104 9.91500E+01 0.00000E+00 0.00000E+00
 -1       105 1.02150E+02 0.00000E+00 0.00000E+00
 -1       106 1.05150E+02 0.00000E+00 0.00000E+00
 -1       107 1.08150E+02 0.00000E+00 0.00000E+00
 -1       108 1.11150E+02 0.00000E+00 0.00000E+00
 -1       109 1.14150E+02 0.00000E+00 0.00000E+00
 -1       110 1.17150E+02 0.00000E+00 0.00000E+00
 -1       111 1.20150E+02 0.00000E+00 0.00000E+00
 -1       112 1.23150E+02 0.00000E+00 0.00000E+00
 -1       113 1.26150E+02 0.00000E+00 0.00000E+00
 -1       114 1.29150E+02 0.00000E+00 0.00000E+00
 -1       115 1.32150E+02 0.00000E+00 0.00000E+00
 -1       116 1.35150E+02 0.00000E+00 0.00000E+00
 -1       117 1.38150E+02 0.00000E+00 0.00000E+00
 -1       118 1.41150E+02 0.00000E+00 0.00000E+00
 -1       119 1.44150E+02 0.00000E+00 0.00000E+00
 -1       120 1.47150E+02 0.00000E+00 0.00000E+00
 -1       121 1.50000E+02 2.95000E+00 0.00000E+00
 -1       122 1.50000E+02 5.90000E+00 0.00000E+00
 -1       123 1.50000E+02 8.85000E+00 0.00000E+00
 -1       124 1.50000E+02 1.18000E+01 0.00000E+00
 -1       125 1.50000E+02 1.47500E+01 0.00000E+00
 -1       126 1.50000E+02 1.76500E+01 0.00000E+00
 -1       127 1.50000E+02 2.06000E+01 0.00000E+00
 -1       128 1.50000E+02 2.35500E+01 0.00000E+00
 -1       129 1.50000E+02 2.65000E+01 0.00000E+00
 -1       130 1.50000E+02 2.94500E+01 0.00000E+00
 -1       131 1.50000E+02 3.24000E+01 0.00000E+00
 -1       132 1.50000E+02 3.53000E+01 0.00000E+00
 -1       133 1.50000E+02 3.82500E+01 0.00000E+00
 -1       134 1.50000E+02 4.12000E+01 0.00000E+00
 -1       135 1.50000E+02 4.41500E+01 0.00000E+00
 -1       136 1.50000E+02 4.71000E+01 0.00000E+00
 -1       137 1.17437E+02 2.35615E+01 0.00000E+00
 -1       138 1.16904E+02 2.20287E+01 0.00000E+00
 -1       139 1.16142E+02 2.07975E+01 0.00000E+00
 -1       140 1.15151E+02 1.97564E+01 0.00000E+00
 -1       141 1.13972E+02 1.89416E+01 0.00000E+00
 -1       142 1.12665E+02 1.83884E+01 0.00000E+00
 -1       143 1.11240E+02 1.81068E+01 0.00000E+00
 -1       144 1.09721E+02 1.81335E+01 0.00000E+00
 -1       145 1.08169E+02 1.85147E+01 0.00000E+00
 -1       146 1.06885E+02 1.91470E+01 0.00000E+00
 -1       147 1.05774E+02 2.00098E+01 0.00000E+00
 -1       148 1.04783E+02 2.11891E+01 0.00000E+00
 -1       149 1.04050E+02 2.26177E+01 0.00000E+00
 -1       150 1.03682E+02 2.40270E+01 0.00000E+00
 -1       151 1.03615E+02 2.54889E+01 0.00000E+00
 -1       152 1.03833E+02 2.68552E+01 0.00000E+00
 -1       153 1.04400E+02 2.83215E+01 0.00000E+00
 -1       154 1.05229E+02 2.95632E+01 0.00000E+00
 -1       155 1.06273E+02 3.05779E+01 0.00000E+00
 -1       156 1.07537E+02 3.13704E+01 0.00000E+00
 -1       157 1.08928E+02 3.18743E+01 0.00000E+00
 -1       158 1.10380E+02 3.20742E+01 0.00000E+00
 -1       159 1.13117E+02 3.16106E+01 0.00000E+00
 -1       160 1.14378E+02 3.09728E+01 0.00000E+00
 -1       161 1.15476E+02 3.01031E+01 0.00000E+00
 -1       162 1.16372E+02 2.90422E+01 0.00000E+00
 -1       163 1.17076E+02 2.77434E+01 0.00000E+00
 -1       164 1.17472E+02 2.64239E+01 0.00000E+00
 -1       165 2.59800E+00 4.55750E+01 0.00000E+00
 -1       166 2.59800E+00 4.26250E+01 0.00000E+00
 -1       167 2.59800E+00 3.96750E+01 0.00000E+00
 -1       168 2.59800E+00 3.67250E+01 0.00000E+00
 -1       169 2.59800E+00 3.38250E+01 0.00000E+00
 -1       170 2.59800E+00 3.08750E+01 0.00000E+00
 -1       171 2.59800E+00 2.79250E+01 0.00000E+00
 -1       172 2.59800E+00 2.49750E+01 0.00000E+00
 -1       173 2.59800E+00 2.20250E+01 0.00000E+00
 -1       174 2.59800E+00 1.90750E+01 0.00000E+00
 -1       175 2.59800E+00 1.61750E+01 0.00000E+00
 -1       176 2.59800E+00 1.32250E+01 0.00000E+00
 -1       177 2.59800E+00 1.02750E+01 0.00000E+00
 -1       178 2.59800E+00 7.32500E+00 0.00000E+00
 -1       179 2.59800E+00 4.37500E+00 0.00000E+00
 -1       180 2.87400E+00 2.18750E+00 0.00000E+00
 -1       181 4.65000E+00 4.74020E+01 0.00000E+00
 -1       182 7.65000E+00 4.74020E+01 0.00000E+00
 -1       183 1.06500E+01 4.74020E+01 0.00000E+00
 -1       184 1.36500E+01 4.74020E+01 0.00000E+00
 -1       185 1.66500E+01 4.74020E+01 0.00000E+00
 -1       186 1.96500E+01 4.74020E+01 0.00000E+00
 -1       187 2.26500E+01 4.74020E+01 0.00000E+00
 -1       188 2.56500E+01 4.74020E+01 0.00000E+00
 -1       189 2.86500E+01 4.74020E+01 0.00000E+00
 -1       190 3.16500E+01 4.74020E+01 0.00000E+00
 -1       191 3.46500E+01 4.74020E+01 0.00000E+00
 -1       192 3.76500E+01 4.74020E+01 0.00000E+00
 -1       193 4.06500E+01 4.74020E+01 0.00000E+00
 -1       194 4.36500E+01 4.74020E+01 0.00000E+00
 -1       195 4.66500E+01 4.74020E+01 0.00000E+00
 -1       196 4.96500E+01 4.74020E+01 0.00000E+00
 -1       197 5.26500E+01 4.74020E+01 0.00000E+00
 -1       198 5.56500E+01 4.74020E+01 0.00000E+00
 -1       199 5.86500E+01 4.74020E+01 0.00000E+00
 -1       200 6.16500E+01 4.74020E+01 0.00000E+00
 -1       201 6.46500E+01 4.74020E+01 0.00000E+00
 -1       202 6.76500E+01 4.74020E+01 0.00000E+00
 -1       203 7.06500E+01 4.74020E+01 0.00000E+00
 -1       204 7.36500E+01 4.74020E+01 0.00000E+00
 -1       205 7.66500E+01 4.74020E+01 0.00000E+00
 -1       206 7.96500E+01 4.74020E+01 0.00000E+00
 -1       207 8.26500E+01 4.74020E+01 0.00000E+00
 -1       208 8.56500E+01 4.74020E+01 0.00000E+00
 -1       209 8.86500E+01 4.74020E+01 0.00000E+00
 -1       210 9.16500E+01 4.74020E+01 0.00000E+00
 -1       211 9.46500E+01 4.74020E+01 0.00000E+00
 -1       212 9.76500E+01 4.74020E+01 0.00000E+00
 -1       213 1.00650E+02 4.74020E+01 0.00000E+00
 -1       214 1.03650E+02 4.74020E+01 0.00000E+00
 -1       215 1.06650E+02 4.74020E+01 0.00000E+00
 -1       216 1.09650E+02 4.74020E+01 0.00000E+00
 -1       217 1.12650E+02 4.74020E+01 0.00000E+00
 -1       218 1.15650E+02 4.74020E+01 0.00000E+00
 -1       219 1.18650E+02 4.74020E+01 0.00000E+00
 -1       220 1.21650E+02 4.74020E+01 0.00000E+00
 -1       221 1.24650E+02 4.74020E+01 0.00000E+00
 -1       222 1.27650E+02 4.74020E+01 0.00000E+00
 -1       223 1.30650E+02 4.74020E+01 0.00000E+00
 -1       224 1.33650E+02 4.74020E+01 0.00000E+00
 -1       225 1.36650E+02 4.74020E+01 0.00000E+00
 -1       226 1.39650E+02 4.74020E+01 0.00000E+00
 -1       227 1.42650E+02 4.74020E+01 0.00000E+00
 -1       228 1.45650E+02 4.74020E+01 0.00000E+00
 -1       229 5.87400E+00 2.18750E+00 0.00000E+00
 -1       230 8.87400E+00 2.18750E+00 0.00000E+00
 -1       231 1.18740E+01 2.18750E+00 0.00000E+00
 -1       232 1.48740E+01 2.18750E+00 0.00000E+00
 -1       233 1.78740E+01 2.18750E+00 0.00000E+00
 -1       234 2.08740E+01 2.18750E+00 0.00000E+00
 -1       235 2.38740E+01 2.18750E+00 0.00000E+00
 -1       236 2.68740E+01 2.18750E+00 0.00000E+00
 -1       237 2.98740E+01 2.18750E+00 0.00000E+00
 -1       238 3.28740E+01 2.18750E+00 0.00000E+00
 -1       239 3.58740E+01 2.18750E+00 0.00000E+00
 -1       240 3.88740E+01 2.18750E+00 0.00000E+00
 -1       241 4.18740E+01 2.18750E+00 0.00000E+00
 -1       242 4.48740E+01 2.18750E+00 0.00000E+00
 -1       243 4.78740E+01 2.18750E+00 0.00000E+00
 -1       244 5.08740E+01 2.18750E+00 0.00000E+00
 -1       245 5.38740E+01 2.18750E+00 0.00000E+00
 -1       246 5.68740E+01 2.18750E+00 0.00000E+00
 -1       247 5.98740E+01 2.18750E+00 0.00000E+00
 -1       248 6.28740E+01 2.18750E+00 0.00000E+00
 -1       249 6.58740E+01 2.18750E+00 0.00000E+00
 -1       250 6.88740E+01 2.18750E+00 0.00000E+00
 -1       251 7.18740E+01 2.18750E+00 0.00000E+00
 -1       252 7.48740E+01 2.18750E+00 0.00000E+00
 -1       253 7.78740E+01 2.18750E+00 0.00000E+00
 -1       254 8.08740E+01 2.18750E+00 0.00000E+00
 -1       255 8.38740E+01 2.18750E+00 0.00000E+00
 -1       256 8.68740E+01 2.18750E+00 0.00000E+00
 -1       257 8.98740E+01 2.18750E+00 0.00000E+00
 -1       258 9.28740E+01 2.18750E+00 0.00000E+00
 -1       259 9.58740E+01 2.18750E+00 0.00000E+00
 -1       260 9.88740E+01 2.18750E+00 0.00000E+00
 -1       261 1.01874E+02 2.18750E+00 0.00000E+00
 -1       262 1.04874E+02 2.18750E+00 0.00000E+00
 -1       263 1.07874E+02 2.18750E+00 0.00000E+00
 -1       264 1.10874E+02 2.18750E+00 0.00000E+00
 -1       265 1.13874E+02 2.18750E+00 0.00000E+00
 -1       266 1.16874E+02 2.18750E+00 0.00000E+00
 -1       267 1.19874E+02 2.18750E+00 0.00000E+00
 -1       268 1.22874E+02 2.18750E+00 0.00000E+00
 -1       269 1.25874E+02 2.18750E+00 0.00000E+00
 -1       270 1.28874E+02 2.18750E+00 0.00000E+00
 -1       271 1.31874E+02 2.18750E+00 0.00000E+00
 -1       272 1.34874E+02 2.18750E+00 0.00000E+00
 -1       273 1.37874E+02 2.18750E+00 0.00000E+00
 -1       274 1.40874E+02 2.18750E+00 0.00000E+00
 -1       275 1.43874E+02 2.18750E+00 0.00000E+00
 -1       276 1.46874E+02 2.18750E+00 0.00000E+00
 -1       277 1.47402E+02 4.42500E+00 0.00000E+00
 -1       278 1.47402E+02 7.37500E+00 0.00000E+00
 -1       279 1.47402E+02 1.03250E+01 0.00000E+00
 -1       280 1.47402E+02 1.32750E+01 0.00000E+00
 -1       281 1.47402E+02 1.61750E+01 0.00000E+00
 -1       282 1.47402E+02 1.91250E+01 0.00000E+00
 -1       283 1.47402E+02 2.20750E+01 0.00000E+00
 -1       284 1.47402E+02 2.50250E+01 0.00000E+00
 -1       285 1.47402E+02 2.79750E+01 0.00000E+00
 -1       286 1.47402E+02 3.09250E+01 0.00000E+00
 -1       287 1.47402E+02 3.38250E+01 0.00000E+00
 -1       288 1.47402E+02 3.67750E+01 0.00000E+00
 -1       289 1.47402E+02 3.97250E+01 0.00000E+00
 -1       290 1.47402E+02 4.26750E+01 0.00000E+00
 -1       291 1.46526E+02 4.50385E+01 0.00000E+00
 -1       292 1.18808E+02 2.41784E+01 0.00000E+00
 -1       293 1.18632E+02 2.22870E+01 0.00000E+00
 -1       294 1.17554E+02 2.07749E+01 0.00000E+00
 -1       295 1.16585E+02 1.93833E+01 0.00000E+00
 -1       296 1.15251E+02 1.83515E+01 0.00000E+00
 -1       297 1.13824E+02 1.74714E+01 0.00000E+00
 -1       298 1.12188E+02 1.70582E+01 0.00000E+00
 -1       299 1.10458E+02 1.68242E+01 0.00000E+00
 -1       300 1.08596E+02 1.69026E+01 0.00000E+00
 -1       301 1.06954E+02 1.76680E+01 0.00000E+00
 -1       302 1.05586E+02 1.86211E+01 0.00000E+00
 -1       303 1.04222E+02 1.97112E+01 0.00000E+00
 -1       304 1.03039E+02 2.11970E+01 0.00000E+00
 -1       305 1.02612E+02 2.29955E+01 0.00000E+00
 -1       306 1.02354E+02 2.46984E+01 0.00000E+00
 -1       307 1.02527E+02 2.63625E+01 0.00000E+00
 -1       308 1.02751E+02 2.81167E+01 0.00000E+00
 -1       309 1.03737E+02 2.96621E+01 0.00000E+00
 -1       310 1.04906E+02 3.09400E+01 0.00000E+00
 -1       311 1.06172E+02 3.21432E+01 0.00000E+00
 -1       312 1.07819E+02 3.27623E+01 0.00000E+00
 -1       313 1.09489E+02 3.31753E+01 0.00000E+00
 -1       314 1.11188E+02 3.33163E+01 0.00000E+00
 -1       315 1.12788E+02 3.29599E+01 0.00000E+00
 -1       316 1.14333E+02 3.24482E+01 0.00000E+00
 -1       317 1.15680E+02 3.14885E+01 0.00000E+00
 -1       318 1.16850E+02 3.03551E+01 0.00000E+00
 -1       319 1.17937E+02 2.90500E+01 0.00000E+00
 -1       320 1.18435E+02 2.74327E+01 0.00000E+00
 -1       321 1.18744E+02 2.58679E+01 0.00000E+00
 -1       322 5.19600E+00 4.11500E+01 0.00000E+00
 -1       323 5.19600E+00 4.41000E+01 0.00000E+00
 -1       324 5.19600E+00 3.52750E+01 0.00000E+00
 -1       325 5.19600E+00 3.23250E+01 0.00000E+00
 -1       326 5.19600E+00 2.93750E+01 0.00000E+00
 -1       327 5.19600E+00 2.64250E+01 0.00000E+00
 -1       328 5.19600E+00 2.34750E+01 0.00000E+00
 -1       329 5.19600E+00 2.05250E+01 0.00000E+00
 -1       330 5.19600E+00 1.76250E+01 0.00000E+00
 -1       331 5.19600E+00 1.46750E+01 0.00000E+00
 -1       332 5.19600E+00 1.17250E+01 0.00000E+00
 -1       333 5.19600E+00 8.77500E+00 0.00000E+00
 -1       334 5.19600E+00 5.82500E+00 0.00000E+00
 -1       335 5.53500E+00 4.00625E+00 0.00000E+00
 -1       336 8.53500E+00 4.00625E+00 0.00000E+00
 -1       337 9.15000E+00 4.48040E+01 0.00000E+00
 -1       338 1.21500E+01 4.48040E+01 0.00000E+00
 -1       339 1.51500E+01 4.48040E+01 0.00000E+00
 -1       340 1.81500E+01 4.48040E+01 0.00000E+00
 -1       341 2.11500E+01 4.48040E+01 0.00000E+00
 -1       342 2.41500E+01 4.48040E+01 0.00000E+00
 -1       343 2.71500E+01 4.48040E+01 0.00000E+00
 -1       344 3.01500E+01 4.48040E+01 0.00000E+00
 -1       345 3.31500E+01 4.48040E+01 0.00000E+00
 -1       346 3.61500E+01 4.48040E+01 0.00000E+00
 -1       347 3.91500E+01 4.48040E+01 0.00000E+00
 -1       348 4.21500E+01 4.48040E+01 0.00000E+00
 -1       349 4.51500E+01 4.48040E+01 0.00000E+00
 -1       350 4.81500E+01 4.48040E+01 0.00000E+00
 -1       351 5.11500E+01 4.48040E+01 0.00000E+00
 -1       352 5.41500E+01 4.48040E+01 0.00000E+00
 -1       353 5.71500E+01 4.48040E+01 0.00000E+00
 -1       354 6.01500E+01 4.48040E+01 0.00000E+00
 -1       355 6.31500E+01 4.48040E+01 0.00000E+00
 -1       356 6.61500E+01 4.48040E+01 0.00000E+00
 -1       357 6.91500E+01 4.48040E+01 0.00000E+00
 -1       358 7.21500E+01 4.48040E+01 0.00000E+00
 -1       359 7.51500E+01 4.48040E+01 0.00000E+00
 -1       360 7.81500E+01 4.48040E+01 0.00000E+00
 -1       361 8.11500E+01 4.48040E+01 0.00000E+00
 -1       362 8.41500E+01 4.48040E+01 0.00000E+00
 -1       363 8.71500E+01 4.48040E+01 0.00000E+00
 -1       364 9.01500E+01 4.48040E+01 0.00000E+00
 -1       365 9.31500E+01 4.48040E+01 0.00000E+00
 -1       366 9.61500E+01 4.48040E+01 0.00000E+00
 -1       367 9.91500E+01 4.48040E+01 0.00000E+00
 -1       368 1.02150E+02 4.48040E+01 0.00000E+00
 -1       369 1.05150E+02 4.48040E+01 0.00000E+00
 -1       370 1.08150E+02 4.48040E+01 0.00000E+00
 -1       371 1.11150E+02 4.48040E+01 0.00000E+00
 -1       372 1.14150E+02 4.48040E+01 0.00000E+00
 -1       373 1.17150E+02 4.48040E+01 0.00000E+00
 -1       374 1.20150E+02 4.48040E+01 0.00000E+00
 -1       375 1.23150E+02 4.48040E+01 0.00000E+00
 -1       376 1.26150E+02 4.48040E+01 0.00000E+00
 -1       377 1.29150E+02 4.48040E+01 0.00000E+00
 -1       378 1.32150E+02 4.48040E+01 0.00000E+00
 -1       379 1.35150E+02 4.48040E+01 0.00000E+00
 -1       380 1.38150E+02 4.48040E+01 0.00000E+00
 -1       381 1.41150E+02 4.48040E+01 0.00000E+00
 -1       382 1.43838E+02 4.49212E+01 0.00000E+00
 -1       383 1.15350E+01 4.00625E+00 0.00000E+00
 -1       384 1.45350E+01 4.00625E+00 0.00000E+00
 -1       385 1.75350E+01 4.00625E+00 0.00000E+00
 -1       386 2.05350E+01 4.00625E+00 0.00000E+00
 -1       387 2.35350E+01 4.00625E+00 0.00000E+00
 -1       388 2.65350E+01 4.00625E+00 0.00000E+00
 -1       389 2.95350E+01 4.00625E+00 0.00000E+00
 -1       390 3.25350E+01 4.00625E+00 0.00000E+00
 -1       391 3.55350E+01 4.00625E+00 0.00000E+00
 -1       392 3.85350E+01 4.00625E+00 0.00000E+00
 -1       393 4.15350E+01 4.00625E+00 0.00000E+00
 -1       394 4.45350E+01 4.00625E+00 0.00000E+00
 -1       395 4.75350E+01 4.00625E+00 0.00000E+00
 -1       396 5.05350E+01 4.00625E+00 0.00000E+00
 -1       397 5.35350E+01 4.00625E+00 0.00000E+00
 -1       398 5.65350E+01 4.00625E+00 0.00000E+00
 -1       399 5.95350E+01 4.00625E+00 0.00000E+00
 -1       400 6.25350E+01 4.00625E+00 0.00000E+00
 -1       401 6.55350E+01 4.00625E+00 0.00000E+00
 -1       402 6.85350E+01 4.00625E+00 0.00000E+00
 -1       403 7.15350E+01 4.00625E+00 0.00000E+00
 -1       404 7.45350E+01 4.00625E+00 0.00000E+00
 -1       405 7.75350E+01 4.00625E+00 0.00000E+00
 -1       406 8.05350E+01 4.00625E+00 0.00000E+00
 -1       407 8.35350E+01 4.00625E+00 0.00000E+00
 -1       408 8.65350E+01 4.00625E+00 0.00000E+00
 -1       409 8.95350E+01 4.00625E+00 0.00000E+00
 -1       410 9.25350E+01 4.00625E+00 0.00000E+00
 -1       411 9.55350E+01 4.00625E+00 0.00000E+00
 -1       412 9.85350E+01 4.00625E+00 0.00000E+00
 -1       413 1.01535E+02 4.00625E+00 0.00000E+00
 -1       414 1.04535E+02 4.00625E+00 0.00000E+00
 -1       415 1.07535E+02 4.00625E+00 0.00000E+00
 -1       416 1.10535E+02 4.00625E+00 0.00000E+00
 -1       417 1.13535E+02 4.00625E+00 0.00000E+00
 -1       418 1.16535E+02 4.00625E+00 0.00000E+00
 -1       419 1.19535E+02 4.00625E+00 0.00000E+00
 -1       420 1.22535E+02 4.00625E+00 0.00000E+00
 -1       421 1.25535E+02 4.00625E+00 0.00000E+00
 -1       422 1.28535E+02 4.00625E+00 0.00000E+00
 -1       423 1.31535E+02 4.00625E+00 0.00000E+00
 -1       424 1.34535E+02 4.00625E+00 0.00000E+00
 -1       425 1.37535E+02 4.00625E+00 0.00000E+00
 -1       426 1.40535E+02 4.00625E+00 0.00000E+00
 -1       427 1.43535E+02 4.00625E+00 0.00000E+00
 -1       428 1.45469E+02 4.21562E+00 0.00000E+00
 -1       429 1.44804E+02 1.18000E+01 0.00000E+00
 -1       430 1.44804E+02 8.85000E+00 0.00000E+00
 -1       431 1.45136E+02 6.53281E+00 0.00000E+00
 -1       432 1.44804E+02 1.47000E+01 0.00000E+00
 -1       433 1.44804E+02 1.76500E+01 0.00000E+00
 -1       434 1.44804E+02 2.06000E+01 0.00000E+00
 -1       435 1.44804E+02 2.35500E+01 0.00000E+00
 -1       436 1.44804E+02 2.65000E+01 0.00000E+00
 -1       437 1.44804E+02 2.94500E+01 0.00000E+00
 -1       438 1.44804E+02 3.23500E+01 0.00000E+00
 -1       439 1.44804E+02 3.53000E+01 0.00000E+00
 -1       440 1.44804E+02 3.82500E+01 0.00000E+00
 -1       441 1.44804E+02 4.12000E+01 0.00000E+00
 -1       442 1.19148E+02 2.07784E+01 0.00000E+00
 -1       443 1.20323E+02 2.50817E+01 0.00000E+00
 -1       444 1.20147E+02 2.31903E+01 0.00000E+00
 -1       445 1.18202E+02 1.92908E+01 0.00000E+00
 -1       446 1.16762E+02 1.77756E+01 0.00000E+00
 -1       447 5.19600E+00 3.82125E+01 0.00000E+00
 -1       448 1.13344E+02 1.59268E+01 0.00000E+00
 -1       449 1.11530E+02 1.54076E+01 0.00000E+00
 -1       450 1.09465E+02 1.54009E+01 0.00000E+00
 -1       451 1.07086E+02 1.58068E+01 0.00000E+00
 -1       452 1.05717E+02 1.67598E+01 0.00000E+00
 -1       453 1.03990E+02 1.80230E+01 0.00000E+00
 -1       454 1.02420E+02 1.94900E+01 0.00000E+00
 -1       455 1.01483E+02 2.17771E+01 0.00000E+00
 -1       456 1.01036E+02 2.36280E+01 0.00000E+00
 -1       457 1.01151E+02 2.56642E+01 0.00000E+00
 -1       458 1.01376E+02 2.74183E+01 0.00000E+00
 -1       459 1.02151E+02 2.95862E+01 0.00000E+00
 -1       460 1.03303E+02 3.12327E+01 0.00000E+00
 -1       461 1.04588E+02 3.25417E+01 0.00000E+00
 -1       462 1.06422E+02 3.39798E+01 0.00000E+00
 -1       463 1.08091E+02 3.43929E+01 0.00000E+00
 -1       464 1.10231E+02 3.45376E+01 0.00000E+00
 -1       465 1.12270E+02 3.44033E+01 0.00000E+00
 -1       466 1.13995E+02 3.40140E+01 0.00000E+00
 -1       467 1.15953E+02 3.32968E+01 0.00000E+00
 -1       468 1.17124E+02 3.21634E+01 0.00000E+00
 -1       469 1.18454E+02 3.05857E+01 0.00000E+00
 -1       470 1.19665E+02 2.86966E+01 0.00000E+00
 -1       471 1.19994E+02 2.68891E+01 0.00000E+00
 -1       472 1.15350E+02 1.65944E+01 0.00000E+00
 -1       473 1.20663E+02 2.16817E+01 0.00000E+00
 -1       474 1.00775E+02 2.88879E+01 0.00000E+00
 -1       475 1.00864E+02 2.00702E+01 0.00000E+00
 -1       476 1.00350E+01 6.60425E+00 0.00000E+00
 -1       477 7.79400E+00 3.08500E+01 0.00000E+00
 -1       478 7.79400E+00 3.38000E+01 0.00000E+00
 -1       479 7.79400E+00 2.49500E+01 0.00000E+00
 -1       480 7.79400E+00 2.20000E+01 0.00000E+00
 -1       481 7.79400E+00 1.91000E+01 0.00000E+00
 -1       482 7.79400E+00 1.61500E+01 0.00000E+00
 -1       483 7.79400E+00 1.32000E+01 0.00000E+00
 -1       484 7.79400E+00 1.02500E+01 0.00000E+00
 -1       485 1.30350E+01 6.60425E+00 0.00000E+00
 -1       486 1.06500E+01 4.22060E+01 0.00000E+00
 -1       487 1.14888E+02 1.46333E+01 0.00000E+00
 -1       488 1.36500E+01 4.22060E+01 0.00000E+00
 -1       489 1.66500E+01 4.22060E+01 0.00000E+00
 -1       490 1.96500E+01 4.22060E+01 0.00000E+00
 -1       491 2.26500E+01 4.22060E+01 0.00000E+00
 -1       492 2.56500E+01 4.22060E+01 0.00000E+00
 -1       493 2.86500E+01 4.22060E+01 0.00000E+00
 -1       494 3.16500E+01 4.22060E+01 0.00000E+00
 -1       495 3.46500E+01 4.22060E+01 0.00000E+00
 -1       496 3.76500E+01 4.22060E+01 0.00000E+00
 -1       497 4.06500E+01 4.22060E+01 0.00000E+00
 -1       498 4.36500E+01 4.22060E+01 0.00000E+00
 -1       499 4.66500E+01 4.22060E+01 0.00000E+00
 -1       500 4.96500E+01 4.22060E+01 0.00000E+00
 -1       501 5.26500E+01 4.22060E+01 0.00000E+00
 -1       502 5.56500E+01 4.22060E+01 0.00000E+00
 -1       503 5.86500E+01 4.22060E+01 0.00000E+00
 -1       504 6.16500E+01 4.22060E+01 0.00000E+00
 -1       505 6.46500E+01 4.22060E+01 0.00000E+00
 -1       506 6.76500E+01 4.22060E+01 0.00000E+00
 -1       507 7.06500E+01 4.22060E+01 0.00000E+00
 -1       508 7.36500E+01 4.22060E+01 0.00000E+00
 -1       509 7.66500E+01 4.22060E+01 0.00000E+00
 -1       510 7.96500E+01 4.22060E+01 0.00000E+00
 -1       511 8.26500E+01 4.22060E+01 0.00000E+00
 -1       512 8.56500E+01 4.22060E+01 0.00000E+00
 -1       513 8.86500E+01 4.22060E+01 0.00000E+00
 -1       514 9.16500E+01 4.22060E+01 0.00000E+00
 -1       515 9.46500E+01 4.22060E+01 0.00000E+00
 -1       516 9.76500E+01 4.22060E+01 0.00000E+00
 -1       517 1.00650E+02 4.22060E+01 0.00000E+00
 -1       518 1.03650E+02 4.22060E+01 0.00000E+00
 -1       519 1.06650E+02 4.22060E+01 0.00000E+00
 -1       520 1.09650E+02 4.22060E+01 0.00000E+00
 -1       521 1.12650E+02 4.22060E+01 0.00000E+00
 -1       522 1.15650E+02 4.22060E+01 0.00000E+00
 -1       523 1.18650E+02 4.22060E+01 0.00000E+00
 -1       524 1.21650E+02 4.22060E+01 0.00000E+00
 -1       525 1.24650E+02 4.22060E+01 0.00000E+00
 -1       526 1.27650E+02 4.22060E+01 0.00000E+00
 -1       527 1.30650E+02 4.22060E+01 0.00000E+00
 -1       528 1.33650E+02 4.22060E+01 0.00000E+00
 -1       529 1.36650E+02 4.22060E+01 0.00000E+00
 -1       530 1.39650E+02 4.22060E+01 0.00000E+00
 -1       531 1.90350E+01 6.60425E+00 0.00000E+00
 -1       532 2.20350E+01 6.60425E+00 0.00000E+00
 -1       533 2.50350E+01 6.60425E+00 0.00000E+00
 -1       534 2.80350E+01 6.60425E+00 0.00000E+00
 -1       535 3.10350E+01 6.60425E+00 0.00000E+00
 -1       536 3.40350E+01 6.60425E+00 0.00000E+00
 -1       537 3.70350E+01 6.60425E+00 0.00000E+00
 -1       538 4.00350E+01 6.60425E+00 0.00000E+00
 -1       539 4.30350E+01 6.60425E+00 0.00000E+00
 -1       540 4.60350E+01 6.60425E+00 0.00000E+00
 -1       541 4.90350E+01 6.60425E+00 0.00000E+00
 -1       542 5.20350E+01 6.60425E+00 0.00000E+00
 -1       543 5.50350E+01 6.60425E+00 0.00000E+00
 -1       544 5.80350E+01 6.60425E+00 0.00000E+00
 -1       545 6.10350E+01 6.60425E+00 0.00000E+00
 -1       546 6.40350E+01 6.60425E+00 0.00000E+00
 -1       547 6.70350E+01 6.60425E+00 0.00000E+00
 -1       548 7.00350E+01 6.60425E+00 0.00000E+00
 -1       549 7.30350E+01 6.60425E+00 0.00000E+00
 -1       550 7.60350E+01 6.60425E+00 0.00000E+00
 -1       551 7.90350E+01 6.60425E+00 0.00000E+00
 -1       552 8.20350E+01 6.60425E+00 0.00000E+00
 -1       553 8.50350E+01 6.60425E+00 0.00000E+00
 -1       554 8.80350E+01 6.60425E+00 0.00000E+00
 -1       555 9.10350E+01 6.60425E+00 0.00000E+00
 -1       556 9.40350E+01 6.60425E+00 0.00000E+00
 -1       557 9.70350E+01 6.60425E+00 0.00000E+00
 -1       558 1.00035E+02 6.60425E+00 0.00000E+00
 -1       559 1.03035E+02 6.60425E+00 0.00000E+00
 -1       560 1.06035E+02 6.60425E+00 0.00000E+00
 -1       561 1.09035E+02 6.60425E+00 0.00000E+00
 -1       562 1.12035E+02 6.60425E+00 0.00000E+00
 -1       563 1.15035E+02 6.60425E+00 0.00000E+00
 -1       564 1.18035E+02 6.60425E+00 0.00000E+00
 -1       565 1.21035E+02 6.60425E+00 0.00000E+00
 -1       566 1.24035E+02 6.60425E+00 0.00000E+00
 -1       567 1.27035E+02 6.60425E+00 0.00000E+00
 -1       568 1.30035E+02 6.60425E+00 0.00000E+00
 -1       569 1.33035E+02 6.60425E+00 0.00000E+00
 -1       570 1.36035E+02 6.60425E+00 0.00000E+00
 -1       571 1.39035E+02 6.60425E+00 0.00000E+00
 -1       572 1.42035E+02 6.60425E+00 0.00000E+00
 -1       573 1.42206E+02 1.61750E+01 0.00000E+00
 -1       574 1.42206E+02 1.91250E+01 0.00000E+00
 -1       575 1.42206E+02 1.03250E+01 0.00000E+00
 -1       576 1.42206E+02 1.32500E+01 0.00000E+00
 -1       577 1.42206E+02 2.20750E+01 0.00000E+00
 -1       578 1.42206E+02 2.50250E+01 0.00000E+00
 -1       579 1.42206E+02 2.79750E+01 0.00000E+00
 -1       580 1.42206E+02 3.08750E+01 0.00000E+00
 -1       581 1.42206E+02 3.38250E+01 0.00000E+00
 -1       582 1.42206E+02 3.67750E+01 0.00000E+00
 -1       583 1.42206E+02 3.97250E+01 0.00000E+00