    1C
    1UUSER                                                              
    1UDATE              27.october.2022                                 
    1UTIME              01:02:54                                        
    1UHOST                                                              
    1UPGM               CalculiX                                        
    1UVERSION           Version 2.17                             
    1UCOMPILETIME       Thu Jul 23 21:43:50 CEST 2020                    
    1UDIR                                                               
    1UDBN                                                               
    1UMAT    1SOLIDMATERIAL                                             
    2C                          4310                                     1
 -1         1 8.45455E+01 4.51693E+01 0.00000E+00
 -1         2 9.47757E+01 3.89592E+01 0.00000E+00
 -1         3 1.50000E+02 0.00000E+00 0.00000E+00
 -1         4 1.50000E+02 5.00000E+01 0.00000E+00
 -1         5 0.00000E+00 0.00000E+00 0.00000E+00
 -1         6 0.00000E+00 5.00000E+01 0.00000E+00
 -1         7 0.00000E+00 4.70500E+01 0.00000E+00
 -1         8 0.00000E+00 4.41000E+01 0.00000E+00
 -1         9 0.00000E+00 4.11500E+01 0.00000E+00
 -1        10 0.00000E+00 3.82000E+01 0.00000E+00
 -1        11 0.00000E+00 3.52500E+01 0.00000E+00
 -1        12 0.00000E+00 3.23500E+01 0.00000E+00
 -1        13 0.00000E+00 2.94000E+01 0.00000E+00
 -1        14 0.00000E+00 2.64500E+01 0.00000E+00
 -1        15 0.00000E+00 2.35000E+01 0.00000E+00
 -1        16 0.00000E+00 2.05500E+01 0.00000E+00
 -1        17 0.00000E+00 1.76000E+01 0.00000E+00
 -1        18 0.00000E+00 1.47000E+01 0.00000E+00
 -1        19 0.00000E+00 1.17500E+01 0.00000E+00
 -1        20 0.00000E+00 8.80000E+00 0.00000E+00
 -1        21 0.00000E+00 5.85000E+00 0.00000E+00
 -1        22 0.00000E+00 2.90000E+00 0.00000E+00
 -1        23 3.15000E+00 5.00000E+01 0.00000E+00
 -1        24 6.15000E+00 5.00000E+01 0.00000E+00
 -1        25 9.15000E+00 5.00000E+01 0.00000E+00
 -1        26 1.21500E+01 5.00000E+01 0.00000E+00
 -1        27 1.51500E+01 5.00000E+01 0.00000E+00
 -1        28 1.81500E+01 5.00000E+01 0.00000E+00
 -1        29 2.11500E+01 5.00000E+01 0.00000E+00
 -1        30 2.41500E+01 5.00000E+01 0.00000E+00
 -1        31 2.71500E+01 5.00000E+01 0.00000E+00
 -1        32 3.03000E+01 5.00000E+01 0.00000E+00
 -1        33 3.33000E+01 5.00000E+01 0.00000E+00
 -1        34 3.63000E+01 5.00000E+01 0.00000E+00
 -1        35 3.93000E+01 5.00000E+01 0.00000E+00
 -1        36 4.23000E+01 5.00000E+01 0.00000E+00
 -1        37 4.53000E+01 5.00000E+01 0.00000E+00
 -1        38 4.83000E+01 5.00000E+01 0.00000E+00
 -1        39 5.13000E+01 5.00000E+01 0.00000E+00
 -1        40 5.43000E+01 5.00000E+01 0.00000E+00
 -1        41 5.74500E+01 5.00000E+01 0.00000E+00
 -1        42 6.04500E+01 5.00000E+01 0.00000E+00
 -1        43 6.34500E+01 5.00000E+01 0.00000E+00
 -1        44 6.64500E+01 5.00000E+01 0.00000E+00
 -1        45 6.94500E+01 5.00000E+01 0.00000E+00
 -1        46 7.24500E+01 5.00000E+01 0.00000E+00
 -1        47 7.54500E+01 5.00000E+01 0.00000E+00
 -1        48 7.84500E+01 5.00000E+01 0.00000E+00
 -1        49 8.10000E+01 5.00000E+01 0.00000E+00
 -1        50 8.35500E+01 5.00000E+01 0.00000E+00
 -1        51 8.55000E+01 5.00000E+01 0.00000E+00
 -1        52 8.76000E+01 5.00000E+01 0.00000E+00
 -1        53 8.97000E+01 5.00000E+01 0.00000E+00
 -1        54 9.16500E+01 5.00000E+01 0.00000E+00
 -1        55 9.39000E+01 5.00000E+01 0.00000E+00
 -1        56 9.63000E+01 5.00000E+01 0.00000E+00
 -1        57 9.88500E+01 5.00000E+01 0.00000E+00
 -1        58 1.01850E+02 5.00000E+01 0.00000E+00
 -1        59 1.04850E+02 5.00000E+01 0.00000E+00
 -1        60 1.07850E+02 5.00000E+01 0.00000E+00
 -1        61 1.10850E+02 5.00000E+01 0.00000E+00
 -1        62 1.13850E+02 5.00000E+01 0.00000E+00
 -1        63 1.16850E+02 5.00000E+01 0.00000E+00
 -1        64 1.19850E+02 5.00000E+01 0.00000E+00
 -1        65 1.23000E+02 5.00000E+01 0.00000E+00
 -1        66 1.26000E+02 5.00000E+01 0.00000E+00
 -1        67 1.29000E+02 5.00000E+01 0.00000E+00
 -1        68 1.32000E+02 5.00000E+01 0.00000E+00
 -1        69 1.35000E+02 5.00000E+01 0.00000E+00
 -1        70 1.38000E+02 5.00000E+01 0.00000E+00
 -1        71 1.41000E+02 5.00000E+01 0.00000E+00
 -1        72 1.44000E+02 5.00000E+01 0.00000E+00
 -1        73 1.47000E+02 5.00000E+01 0.00000E+00
 -1        74 3.15000E+00 0.00000E+00 0.00000E+00
 -1        75 6.15000E+00 0.00000E+00 0.00000E+00
 -1        76 9.15000E+00 0.00000E+00 0.00000E+00
 -1        77 1.21500E+01 0.00000E+00 0.00000E+00
 -1        78 1.51500E+01 0.00000E+00 0.00000E+00
 -1        79 1.81500E+01 0.00000E+00 0.00000E+00
 -1        80 2.11500E+01 0.00000E+00 0.00000E+00
 -1        81 2.41500E+01 0.00000E+00 0.00000E+00
 -1        82 2.71500E+01 0.00000E+00 0.00000E+00
 -1        83 3.01500E+01 0.00000E+00 0.00000E+00
 -1        84 3.31500E+01 0.00000E+00 0.00000E+00
 -1        85 3.61500E+01 0.00000E+00 0.00000E+00
 -1        86 3.91500E+01 0.00000E+00 0.00000E+00
 -1        87 4.21500E+01 0.00000E+00 0.00000E+00
 -1        88 4.51500E+01 0.00000E+00 0.00000E+00
 -1        89 4.81500E+01 0.00000E+00 0.00000E+00
 -1        90 5.11500E+01 0.00000E+00 0.00000E+00
 -1        91 5.41500E+01 0.00000E+00 0.00000E+00
 -1        92 5.71500E+01 0.00000E+00 0.00000E+00
 -1        93 6.01500E+01 0.00000E+00 0.00000E+00
 -1        94 6.31500E+01 0.00000E+00 0.00000E+00
 -1        95 6.61500E+01 0.00000E+00 0.00000E+00
 -1        96 6.91500E+01 0.00000E+00 0.00000E+00
 -1        97 7.21500E+01 0.00000E+00 0.00000E+00
 -1        98 7.51500E+01 0.00000E+00 0.00000E+00
 -1        99 7.81500E+01 0.00000E+00 0.00000E+00
 -1       100 8.11500E+01 0.00000E+00 0.00000E+00
 -1       101 8.41500E+01 0.00000E+00 0.00000E+00
 -1       102 8.71500E+01 0.00000E+00 0.00000E+00
 -1       103 9.01500E+01 0.00000E+00 0.00000E+00
 -1       104 9.31500E+01 0.00000E+00 0.00000E+00
 -1       105 9.61500E+01 0.00000E+00 0.00000E+00
 -1       106 9.91500E+01 0.00000E+00 0.00000E+00
 -1       107 1.02150E+02 0.00000E+00 0.00000E+00
 -1       108 1.05150E+02 0.00000E+00 0.00000E+00
 -1       109 1.08150E+02 0.00000E+00 0.00000E+00
 -1       110 1.11150E+02 0.00000E+00 0.00000E+00
 -1       111 1.14150E+02 0.00000E+00 0.00000E+00
 -1       112 1.17150E+02 0.00000E+00 0.00000E+00
 -1       113 1.20150E+02 0.00000E+00 0.00000E+00
 -1       114 1.23150E+02 0.00000E+00 0.00000E+00
 -1       115 1.26150E+02 0.00000E+00 0.00000E+00
 -1       116 1.29150E+02 0.00000E+00 0.00000E+00
 -1       117 1.32150E+02 0.00000E+00 0.00000E+00
 -1       118 1.35150E+02 0.00000E+00 0.00000E+00
 -1       119 1.38150E+02 0.00000E+00 0.00000E+00
 -1       120 1.41150E+02 0.00000E+00 0.00000E+00
 -1       121 1.44150E+02 0.00000E+00 0.00000E+00
 -1       122 1.47150E+02 0.00000E+00 0.00000E+00
 -1       123 1.50000E+02 2.95000E+00 0.00000E+00
 -1       124 1.50000E+02 5.90000E+00 0.00000E+00
 -1       125 1.50000E+02 8.85000E+00 0.00000E+00
 -1       126 1.50000E+02 1.18000E+01 0.00000E+00
 -1       127 1.50000E+02 1.47500E+01 0.00000E+00
 -1       128 1.50000E+02 1.76500E+01 0.00000E+00
 -1       129 1.50000E+02 2.06000E+01 0.00000E+00
 -1       130 1.50000E+02 2.35500E+01 0.00000E+00
 -1       131 1.50000E+02 2.65000E+01 0.00000E+00
 -1       132 1.50000E+02 2.94500E+01 0.00000E+00
 -1       133 1.50000E+02 3.24000E+01 0.00000E+00
 -1       134 1.50000E+02 3.53000E+01 0.00000E+00
 -1       135 1.50000E+02 3.82500E+01 0.00000E+00
 -1       136 1.50000E+02 4.12000E+01 0.00000E+00
 -1       137 1.50000E+02 4.41500E+01 0.00000E+00
 -1       138 1.50000E+02 4.71000E+01 0.00000E+00
 -1       139 9.46076E+01 3.74341E+01 0.00000E+00
 -1       140 9.41746E+01 3.61212E+01 0.00000E+00
 -1       141 9.34921E+01 3.49191E+01 0.00000E+00
 -1       142 9.24830E+01 3.37783E+01 0.00000E+00
 -1       143 9.13458E+01 3.29380E+01 0.00000E+00
 -1       144 8.98652E+01 3.22783E+01 0.00000E+00
 -1       145 8.84649E+01 3.19932E+01 0.00000E+00
 -1       146 8.69366E+01 3.20097E+01 0.00000E+00
 -1       147 8.55480E+01 3.23231E+01 0.00000E+00
 -1       148 8.41740E+01 3.29569E+01 0.00000E+00
 -1       149 8.30437E+01 3.38009E+01 0.00000E+00
 -1       150 8.20746E+01 3.48976E+01 0.00000E+00
 -1       151 8.13763E+01 3.61224E+01 0.00000E+00
 -1       152 8.09271E+01 3.75114E+01 0.00000E+00
 -1       153 8.07758E+01 3.89846E+01 0.00000E+00
 -1       154 8.09436E+01 4.04828E+01 0.00000E+00
 -1       155 8.13979E+01 4.18443E+01 0.00000E+00
 -1       156 8.21576E+01 4.31350E+01 0.00000E+00
 -1       157 8.31790E+01 4.42384E+01 0.00000E+00
 -1       158 8.58782E+01 4.56971E+01 0.00000E+00
 -1       159 8.73780E+01 4.59479E+01 0.00000E+00
 -1       160 8.87500E+01 4.58911E+01 0.00000E+00
 -1       161 9.01582E+01 4.55413E+01 0.00000E+00
 -1       162 9.14219E+01 4.49346E+01 0.00000E+00
 -1       163 9.25252E+01 4.41014E+01 0.00000E+00
 -1       164 9.34849E+01 4.30096E+01 0.00000E+00
 -1       165 9.41963E+01 4.17478E+01 0.00000E+00
 -1       166 9.46311E+01 4.03749E+01 0.00000E+00
 -1       167 2.59800E+00 4.55750E+01 0.00000E+00
 -1       168 2.59800E+00 4.26250E+01 0.00000E+00
 -1       169 2.59800E+00 3.96750E+01 0.00000E+00
 -1       170 2.59800E+00 3.67250E+01 0.00000E+00
 -1       171 2.59800E+00 3.38250E+01 0.00000E+00
 -1       172 2.59800E+00 3.08750E+01 0.00000E+00
 -1       173 2.59800E+00 2.79250E+01 0.00000E+00
 -1       174 2.59800E+00 2.49750E+01 0.00000E+00
 -1       175 2.59800E+00 2.20250E+01 0.00000E+00
 -1       176 2.59800E+00 1.90750E+01 0.00000E+00
 -1       177 2.59800E+00 1.61750E+01 0.00000E+00
 -1       178 2.59800E+00 1.32250E+01 0.00000E+00
 -1       179 2.59800E+00 1.02750E+01 0.00000E+00
 -1       180 2.59800E+00 7.32500E+00 0.00000E+00
 -1       181 2.59800E+00 4.37500E+00 0.00000E+00
 -1       182 2.87400E+00 2.18750E+00 0.00000E+00
 -1       183 4.65000E+00 4.74020E+01 0.00000E+00
 -1       184 7.65000E+00 4.74020E+01 0.00000E+00
 -1       185 1.06500E+01 4.74020E+01 0.00000E+00
 -1       186 1.36500E+01 4.74020E+01 0.00000E+00
 -1       187 1.66500E+01 4.74020E+01 0.00000E+00
 -1       188 1.96500E+01 4.74020E+01 0.00000E+00
 -1       189 2.26500E+01 4.74020E+01 0.00000E+00
 -1       190 2.56500E+01 4.74020E+01 0.00000E+00
 -1       191 2.88000E+01 4.74020E+01 0.00000E+00
 -1       192 3.18000E+01 4.74020E+01 0.00000E+00
 -1       193 3.48000E+01 4.74020E+01 0.00000E+00
 -1       194 3.78000E+01 4.74020E+01 0.00000E+00
 -1       195 4.08000E+01 4.74020E+01 0.00000E+00
 -1       196 4.38000E+01 4.74020E+01 0.00000E+00
 -1       197 4.68000E+01 4.74020E+01 0.00000E+00
 -1       198 4.98000E+01 4.74020E+01 0.00000E+00
 -1       199 5.28000E+01 4.74020E+01 0.00000E+00
 -1       200 5.59500E+01 4.74020E+01 0.00000E+00
 -1       201 5.89500E+01 4.74020E+01 0.00000E+00
 -1       202 6.19500E+01 4.74020E+01 0.00000E+00
 -1       203 6.49500E+01 4.74020E+01 0.00000E+00
 -1       204 6.79500E+01 4.74020E+01 0.00000E+00
 -1       205 7.09500E+01 4.74020E+01 0.00000E+00
 -1       206 7.39500E+01 4.74020E+01 0.00000E+00
 -1       207 7.69500E+01 4.74020E+01 0.00000E+00
 -1       208 7.95000E+01 4.74020E+01 0.00000E+00
 -1       209 8.45250E+01 4.81173E+01 0.00000E+00
 -1       210 8.66250E+01 4.81173E+01 0.00000E+00
 -1       211 8.87250E+01 4.81173E+01 0.00000E+00
 -1       212 9.06750E+01 4.81173E+01 0.00000E+00
 -1       213 9.29250E+01 4.81173E+01 0.00000E+00
 -1       214 9.53250E+01 4.81173E+01 0.00000E+00
 -1       215 9.78750E+01 4.81173E+01 0.00000E+00
 -1       216 1.00875E+02 4.81173E+01 0.00000E+00
 -1       217 1.03875E+02 4.81173E+01 0.00000E+00
 -1       218 1.06875E+02 4.81173E+01 0.00000E+00
 -1       219 1.09875E+02 4.81173E+01 0.00000E+00
 -1       220 1.12875E+02 4.81173E+01 0.00000E+00
 -1       221 1.15875E+02 4.81173E+01 0.00000E+00
 -1       222 1.18875E+02 4.81173E+01 0.00000E+00
 -1       223 1.22025E+02 4.81173E+01 0.00000E+00
 -1       224 1.25025E+02 4.81173E+01 0.00000E+00
 -1       225 1.28025E+02 4.81173E+01 0.00000E+00
 -1       226 1.31025E+02 4.81173E+01 0.00000E+00
 -1       227 1.34025E+02 4.81173E+01 0.00000E+00
 -1       228 1.37025E+02 4.81173E+01 0.00000E+00
 -1       229 1.40025E+02 4.81173E+01 0.00000E+00
 -1       230 1.43025E+02 4.81173E+01 0.00000E+00
 -1       231 1.46025E+02 4.81173E+01 0.00000E+00
 -1       232 1.48012E+02 4.76087E+01 0.00000E+00
 -1       233 5.87400E+00 2.18750E+00 0.00000E+00
 -1       234 8.87400E+00 2.18750E+00 0.00000E+00
 -1       235 1.18740E+01 2.18750E+00 0.00000E+00
 -1       236 1.48740E+01 2.18750E+00 0.00000E+00
 -1       237 1.78740E+01 2.18750E+00 0.00000E+00
 -1       238 2.08740E+01 2.18750E+00 0.00000E+00
 -1       239 2.38740E+01 2.18750E+00 0.00000E+00
 -1       240 2.68740E+01 2.18750E+00 0.00000E+00
 -1       241 2.98740E+01 2.18750E+00 0.00000E+00
 -1       242 3.28740E+01 2.18750E+00 0.00000E+00
 -1       243 3.58740E+01 2.18750E+00 0.00000E+00
 -1       244 3.88740E+01 2.18750E+00 0.00000E+00
 -1       245 4.18740E+01 2.18750E+00 0.00000E+00
 -1       246 4.48740E+01 2.18750E+00 0.00000E+00
 -1       247 4.78740E+01 2.18750E+00 0.00000E+00
 -1       248 5.08740E+01 2.18750E+00 0.00000E+00
 -1       249 5.38740E+01 2.18750E+00 0.00000E+00
 -1       250 5.68740E+01 2.18750E+00 0.00000E+00
 -1       251 5.98740E+01 2.18750E+00 0.00000E+00
 -1       252 6.28740E+01 2.18750E+00 0.00000E+00
 -1       253 6.58740E+01 2.18750E+00 0.00000E+00
 -1       254 6.88740E+01 2.18750E+00 0.00000E+00
 -1       255 7.18740E+01 2.18750E+00 0.00000E+00
 -1       256 7.48740E+01 2.18750E+00 0.00000E+00
 -1       257 7.78740E+01 2.18750E+00 0.00000E+00
 -1       258 8.08740E+01 2.18750E+00 0.00000E+00
 -1       259 8.38740E+01 2.18750E+00 0.00000E+00
 -1       260 8.68740E+01 2.18750E+00 0.00000E+00
 -1       261 8.98740E+01 2.18750E+00 0.00000E+00
 -1       262 9.28740E+01 2.18750E+00 0.00000E+00
 -1       263 9.58740E+01 2.18750E+00 0.00000E+00
 -1       264 9.88740E+01 2.18750E+00 0.00000E+00
 -1       265 1.01874E+02 2.18750E+00 0.00000E+00
 -1       266 1.04874E+02 2.18750E+00 0.00000E+00
 -1       267 1.07874E+02 2.18750E+00 0.00000E+00
 -1       268 1.10874E+02 2.18750E+00 0.00000E+00
 -1       269 1.13874E+02 2.18750E+00 0.00000E+00
 -1       270 1.16874E+02 2.18750E+00 0.00000E+00
 -1       271 1.19874E+02 2.18750E+00 0.00000E+00
 -1       272 1.22874E+02 2.18750E+00 0.00000E+00
 -1       273 1.25874E+02 2.18750E+00 0.00000E+00
 -1       274 1.28874E+02 2.18750E+00 0.00000E+00
 -1       275 1.31874E+02 2.18750E+00 0.00000E+00
 -1       276 1.34874E+02 2.18750E+00 0.00000E+00
 -1       277 1.37874E+02 2.18750E+00 0.00000E+00
 -1       278 1.40874E+02 2.18750E+00 0.00000E+00
 -1       279 1.43874E+02 2.18750E+00 0.00000E+00
 -1       280 1.46874E+02 2.18750E+00 0.00000E+00
 -1       281 1.47402E+02 4.42500E+00 0.00000E+00
 -1       282 1.47402E+02 7.37500E+00 0.00000E+00
 -1       283 1.47402E+02 1.03250E+01 0.00000E+00
 -1       284 1.47402E+02 1.32750E+01 0.00000E+00
 -1       285 1.47402E+02 1.61750E+01 0.00000E+00
 -1       286 1.47402E+02 1.91250E+01 0.00000E+00
 -1       287 1.47402E+02 2.20750E+01 0.00000E+00
 -1       288 1.47402E+02 2.50250E+01 0.00000E+00
 -1       289 1.47402E+02 2.79750E+01 0.00000E+00
 -1       290 1.47402E+02 3.09250E+01 0.00000E+00
 -1       291 1.47402E+02 3.38250E+01 0.00000E+00
 -1       292 1.47402E+02 3.67750E+01 0.00000E+00
 -1       293 1.47402E+02 3.97250E+01 0.00000E+00
 -1       294 1.47402E+02 4.26750E+01 0.00000E+00
 -1       295 1.47707E+02 4.51418E+01 0.00000E+00
 -1       296 9.60633E+01 3.80454E+01 0.00000E+00
 -1       297 9.55425E+01 3.63979E+01 0.00000E+00
 -1       298 9.48877E+01 3.49216E+01 0.00000E+00
 -1       299 9.38957E+01 3.35454E+01 0.00000E+00
 -1       300 9.26349E+01 3.23831E+01 0.00000E+00
 -1       301 9.12353E+01 3.11946E+01 0.00000E+00
 -1       302 8.94069E+01 3.09478E+01 0.00000E+00
 -1       303 8.76858E+01 3.06216E+01 0.00000E+00
 -1       304 8.59569E+01 3.09021E+01 0.00000E+00
 -1       305 8.42831E+01 3.13869E+01 0.00000E+00
 -1       306 8.28835E+01 3.24075E+01 0.00000E+00
 -1       307 8.16507E+01 3.35464E+01 0.00000E+00
 -1       308 8.06722E+01 3.49095E+01 0.00000E+00
 -1       309 7.99981E+01 3.64438E+01 0.00000E+00
 -1       310 7.95620E+01 3.81155E+01 0.00000E+00
 -1       311 7.95715E+01 3.98779E+01 0.00000E+00
 -1       312 8.00207E+01 4.15474E+01 0.00000E+00
 -1       313 8.05885E+01 4.31897E+01 0.00000E+00
 -1       314 8.16556E+01 4.46241E+01 0.00000E+00
 -1       315 8.29909E+01 4.59828E+01 0.00000E+00
 -1       316 8.47654E+01 4.65604E+01 0.00000E+00
 -1       317 8.62652E+01 4.68112E+01 0.00000E+00
 -1       318 8.81141E+01 4.71309E+01 0.00000E+00
 -1       319 8.97665E+01 4.69742E+01 0.00000E+00
 -1       320 9.13148E+01 4.63309E+01 0.00000E+00
 -1       321 9.27042E+01 4.54855E+01 0.00000E+00
 -1       322 9.39157E+01 4.43559E+01 0.00000E+00
 -1       323 9.48967E+01 4.29742E+01 0.00000E+00
 -1       324 9.56494E+01 4.14527E+01 0.00000E+00
 -1       325 9.59095E+01 3.97903E+01 0.00000E+00
 -1       326 8.22750E+01 4.77822E+01 0.00000E+00
 -1       327 5.19600E+00 4.11500E+01 0.00000E+00
 -1       328 5.19600E+00 4.41000E+01 0.00000E+00
 -1       329 5.19600E+00 3.52750E+01 0.00000E+00
 -1       330 5.19600E+00 3.23250E+01 0.00000E+00
 -1       331 5.19600E+00 2.93750E+01 0.00000E+00
 -1       332 5.19600E+00 2.64250E+01 0.00000E+00
 -1       333 5.19600E+00 2.34750E+01 0.00000E+00
 -1       334 5.19600E+00 2.05250E+01 0.00000E+00
 -1       335 5.19600E+00 1.76250E+01 0.00000E+00
 -1       336 5.19600E+00 1.46750E+01 0.00000E+00
 -1       337 5.19600E+00 1.17250E+01 0.00000E+00
 -1       338 5.19600E+00 8.77500E+00 0.00000E+00
 -1       339 5.19600E+00 5.82500E+00 0.00000E+00
 -1       340 5.53500E+00 4.00625E+00 0.00000E+00
 -1       341 8.53500E+00 4.00625E+00 0.00000E+00
 -1       342 9.15000E+00 4.48040E+01 0.00000E+00
 -1       343 1.21500E+01 4.48040E+01 0.00000E+00
 -1       344 1.51500E+01 4.48040E+01 0.00000E+00
 -1       345 1.81500E+01 4.48040E+01 0.00000E+00
 -1       346 2.11500E+01 4.48040E+01 0.00000E+00
 -1       347 2.41500E+01 4.48040E+01 0.00000E+00
 -1       348 2.73000E+01 4.48040E+01 0.00000E+00
 -1       349 3.03000E+01 4.48040E+01 0.00000E+00
 -1       350 3.33000E+01 4.48040E+01 0.00000E+00
 -1       351 3.63000E+01 4.48040E+01 0.00000E+00
 -1       352 3.93000E+01 4.48040E+01 0.00000E+00
 -1       353 4.23000E+01 4.48040E+01 0.00000E+00
 -1       354 4.53000E+01 4.48040E+01 0.00000E+00
 -1       355 4.83000E+01 4.48040E+01 0.00000E+00
 -1       356 5.13000E+01 4.48040E+01 0.00000E+00
 -1       357 5.44500E+01 4.48040E+01 0.00000E+00
 -1       358 5.74500E+01 4.48040E+01 0.00000E+00
 -1       359 6.04500E+01 4.48040E+01 0.00000E+00
 -1       360 6.34500E+01 4.48040E+01 0.00000E+00
 -1       361 6.64500E+01 4.48040E+01 0.00000E+00
 -1       362 6.94500E+01 4.48040E+01 0.00000E+00
 -1       363 7.24500E+01 4.48040E+01 0.00000E+00
 -1       364 7.54500E+01 4.48040E+01 0.00000E+00
 -1       365 9.74445E+01 3.90463E+01 0.00000E+00
 -1       366 9.41250E+01 4.64022E+01 0.00000E+00
 -1       367 9.66750E+01 4.64022E+01 0.00000E+00
 -1       368 9.93750E+01 4.60671E+01 0.00000E+00
 -1       369 1.02375E+02 4.57319E+01 0.00000E+00
 -1       370 1.05375E+02 4.57319E+01 0.00000E+00
 -1       371 1.08375E+02 4.57319E+01 0.00000E+00
 -1       372 1.11375E+02 4.57319E+01 0.00000E+00
 -1       373 1.14375E+02 4.57319E+01 0.00000E+00
 -1       374 1.17375E+02 4.57319E+01 0.00000E+00
 -1       375 1.20525E+02 4.57319E+01 0.00000E+00
 -1       376 1.23525E+02 4.57319E+01 0.00000E+00
 -1       377 1.26525E+02 4.57319E+01 0.00000E+00
 -1       378 1.29525E+02 4.57319E+01 0.00000E+00
 -1       379 1.32525E+02 4.57319E+01 0.00000E+00
 -1       380 1.35525E+02 4.57319E+01 0.00000E+00
 -1       381 1.38525E+02 4.57319E+01 0.00000E+00
 -1       382 1.41525E+02 4.57319E+01 0.00000E+00
 -1       383 1.44525E+02 4.57319E+01 0.00000E+00
 -1       384 1.46116E+02 4.54369E+01 0.00000E+00
 -1       385 1.33740E+01 4.78550E+00 0.00000E+00
 -1       386 1.63740E+01 4.78550E+00 0.00000E+00
 -1       387 1.93740E+01 4.78550E+00 0.00000E+00
 -1       388 2.23740E+01 4.78550E+00 0.00000E+00
 -1       389 2.53740E+01 4.78550E+00 0.00000E+00
 -1       390 2.83740E+01 4.78550E+00 0.00000E+00
 -1       391 3.13740E+01 4.78550E+00 0.00000E+00
 -1       392 3.43740E+01 4.78550E+00 0.00000E+00
 -1       393 3.73740E+01 4.78550E+00 0.00000E+00
 -1       394 4.03740E+01 4.78550E+00 0.00000E+00
 -1       395 4.33740E+01 4.78550E+00 0.00000E+00
 -1       396 4.63740E+01 4.78550E+00 0.00000E+00
 -1       397 4.93740E+01 4.78550E+00 0.00000E+00
 -1       398 5.23740E+01 4.78550E+00 0.00000E+00
 -1       399 5.53740E+01 4.78550E+00 0.00000E+00
 -1       400 5.83740E+01 4.78550E+00 0.00000E+00
 -1       401 6.13740E+01 4.78550E+00 0.00000E+00
 -1       402 6.43740E+01 4.78550E+00 0.00000E+00
 -1       403 6.73740E+01 4.78550E+00 0.00000E+00
 -1       404 7.03740E+01 4.78550E+00 0.00000E+00
 -1       405 7.33740E+01 4.78550E+00 0.00000E+00
 -1       406 7.63740E+01 4.78550E+00 0.00000E+00
 -1       407 7.93740E+01 4.78550E+00 0.00000E+00
 -1       408 8.23740E+01 4.78550E+00 0.00000E+00
 -1       409 8.53740E+01 4.78550E+00 0.00000E+00
 -1       410 8.83740E+01 4.78550E+00 0.00000E+00
 -1       411 9.13740E+01 4.78550E+00 0.00000E+00
 -1       412 9.43740E+01 4.78550E+00 0.00000E+00
 -1       413 9.73740E+01 4.78550E+00 0.00000E+00
 -1       414 1.00374E+02 4.78550E+00 0.00000E+00
 -1       415 1.03374E+02 4.78550E+00 0.00000E+00
 -1       416 1.06374E+02 4.78550E+00 0.00000E+00
 -1       417 1.09374E+02 4.78550E+00 0.00000E+00
 -1       418 1.12374E+02 4.78550E+00 0.00000E+00
 -1       419 1.15374E+02 4.78550E+00 0.00000E+00
 -1       420 1.18374E+02 4.78550E+00 0.00000E+00
 -1       421 1.21374E+02 4.78550E+00 0.00000E+00
 -1       422 1.24374E+02 4.78550E+00 0.00000E+00
 -1       423 1.27374E+02 4.78550E+00 0.00000E+00
 -1       424 1.30374E+02 4.78550E+00 0.00000E+00
 -1       425 1.33374E+02 4.78550E+00 0.00000E+00
 -1       426 1.36374E+02 4.78550E+00 0.00000E+00
 -1       427 1.39374E+02 4.78550E+00 0.00000E+00
 -1       428 1.42374E+02 4.78550E+00 0.00000E+00
 -1       429 1.44888E+02 4.60525E+00 0.00000E+00
 -1       430 1.44804E+02 1.18000E+01 0.00000E+00
 -1       431 1.44804E+02 8.85000E+00 0.00000E+00
 -1       432 1.44804E+02 1.47000E+01 0.00000E+00
 -1       433 1.44804E+02 1.76500E+01 0.00000E+00
 -1       434 1.44804E+02 2.06000E+01 0.00000E+00
 -1       435 1.44804E+02 2.35500E+01 0.00000E+00
 -1       436 1.44804E+02 2.65000E+01 0.00000E+00
 -1       437 1.44804E+02 2.94500E+01 0.00000E+00
 -1       438 1.44804E+02 3.23500E+01 0.00000E+00
 -1       439 1.44804E+02 3.53000E+01 0.00000E+00
 -1       440 1.44804E+02 3.82500E+01 0.00000E+00
 -1       441 1.44804E+02 4.12000E+01 0.00000E+00
 -1       442 1.09545E+01 4.39587E+00 0.00000E+00
 -1       443 9.64766E+01 3.51003E+01 0.00000E+00
 -1       444 9.43710E+01 3.17649E+01 0.00000E+00
 -1       445 9.72785E+01 3.67552E+01 0.00000E+00
 -1       446 5.19600E+00 3.82125E+01 0.00000E+00
 -1       447 9.29714E+01 3.05764E+01 0.00000E+00
 -1       448 9.05394E+01 2.94545E+01 0.00000E+00
 -1       449 8.88183E+01 2.91283E+01 0.00000E+00
 -1       450 8.65736E+01 2.92342E+01 0.00000E+00
 -1       451 8.47127E+01 2.97385E+01 0.00000E+00
 -1       452 8.25728E+01 3.05114E+01 0.00000E+00
 -1       453 8.13399E+01 3.16503E+01 0.00000E+00
 -1       454 7.99042E+01 3.33256E+01 0.00000E+00
 -1       455 7.90718E+01 3.51216E+01 0.00000E+00
 -1       456 7.82827E+01 3.68890E+01 0.00000E+00
 -1       457 7.81030E+01 3.90046E+01 0.00000E+00
 -1       458 7.85444E+01 4.10494E+01 0.00000E+00
 -1       459 7.90004E+01 4.28195E+01 0.00000E+00
 -1       460 8.00148E+01 4.47305E+01 0.00000E+00
 -1       461 8.13390E+01 4.62707E+01 0.00000E+00
 -1       462 9.54631E+01 4.44154E+01 0.00000E+00
 -1       463 9.66601E+01 4.28996E+01 0.00000E+00
 -1       464 9.71844E+01 4.07087E+01 0.00000E+00
 -1       465 9.55111E+01 3.34265E+01 0.00000E+00
 -1       466 7.82250E+01 4.51842E+01 0.00000E+00
 -1       467 9.22755E+01 2.88363E+01 0.00000E+00
 -1       468 7.79400E+00 3.08500E+01 0.00000E+00
 -1       469 7.79400E+00 3.38000E+01 0.00000E+00
 -1       470 7.79400E+00 2.49500E+01 0.00000E+00
 -1       471 7.79400E+00 2.20000E+01 0.00000E+00
 -1       472 7.79400E+00 1.91000E+01 0.00000E+00
 -1       473 7.79400E+00 1.61500E+01 0.00000E+00
 -1       474 7.79400E+00 1.32000E+01 0.00000E+00
 -1       475 7.79400E+00 1.02500E+01 0.00000E+00
 -1       476 7.79400E+00 7.30000E+00 0.00000E+00
 -1       477 8.16450E+00 5.65312E+00 0.00000E+00
 -1       478 7.93198E+01 3.13719E+01 0.00000E+00
 -1       479 9.47814E+01 2.98633E+01 0.00000E+00
 -1       480 1.06500E+01 4.22060E+01 0.00000E+00
 -1       481 1.36500E+01 4.22060E+01 0.00000E+00
 -1       482 1.66500E+01 4.22060E+01 0.00000E+00
 -1       483 1.96500E+01 4.22060E+01 0.00000E+00
 -1       484 2.26500E+01 4.22060E+01 0.00000E+00
 -1       485 2.58000E+01 4.22060E+01 0.00000E+00
 -1       486 2.88000E+01 4.22060E+01 0.00000E+00
 -1       487 3.18000E+01 4.22060E+01 0.00000E+00
 -1       488 3.48000E+01 4.22060E+01 0.00000E+00
 -1       489 3.78000E+01 4.22060E+01 0.00000E+00
 -1       490 4.08000E+01 4.22060E+01 0.00000E+00
 -1       491 4.38000E+01 4.22060E+01 0.00000E+00
 -1       492 4.68000E+01 4.22060E+01 0.00000E+00
 -1       493 4.98000E+01 4.22060E+01 0.00000E+00
 -1       494 5.29500E+01 4.22060E+01 0.00000E+00
 -1       495 5.59500E+01 4.22060E+01 0.00000E+00
 -1       496 5.89500E+01 4.22060E+01 0.00000E+00
 -1       497 6.19500E+01 4.22060E+01 0.00000E+00
 -1       498 6.49500E+01 4.22060E+01 0.00000E+00
 -1       499 6.79500E+01 4.22060E+01 0.00000E+00
 -1       500 7.09500E+01 4.22060E+01 0.00000E+00
 -1       501 7.39500E+01 4.22060E+01 0.00000E+00
 -1       502 8.30601E+01 2.85118E+01 0.00000E+00
 -1       503 1.06875E+02 4.31339E+01 0.00000E+00
 -1       504 1.09875E+02 4.31339E+01 0.00000E+00
 -1       505 1.12875E+02 4.31339E+01 0.00000E+00
 -1       506 1.15875E+02 4.31339E+01 0.00000E+00
 -1       507 1.19025E+02 4.31339E+01 0.00000E+00
 -1       508 1.22025E+02 4.31339E+01 0.00000E+00
 -1       509 1.25025E+02 4.31339E+01 0.00000E+00
 -1       510 1.28025E+02 4.31339E+01 0.00000E+00
 -1       511 1.31025E+02 4.31339E+01 0.00000E+00
 -1       512 1.34025E+02 4.31339E+01 0.00000E+00
 -1       513 1.37025E+02 4.31339E+01 0.00000E+00
 -1       514 1.40025E+02 4.31339E+01 0.00000E+00
 -1       515 1.78740E+01 7.38350E+00 0.00000E+00
 -1       516 1.48740E+01 7.38350E+00 0.00000E+00
 -1       517 2.38740E+01 7.38350E+00 0.00000E+00
 -1       518 2.68740E+01 7.38350E+00 0.00000E+00
 -1       519 2.98740E+01 7.38350E+00 0.00000E+00
 -1       520 3.28740E+01 7.38350E+00 0.00000E+00
 -1       521 3.58740E+01 7.38350E+00 0.00000E+00
 -1       522 3.88740E+01 7.38350E+00 0.00000E+00
 -1       523 4.18740E+01 7.38350E+00 0.00000E+00
 -1       524 4.48740E+01 7.38350E+00 0.00000E+00
 -1       525 4.78740E+01 7.38350E+00 0.00000E+00
 -1       526 5.08740E+01 7.38350E+00 0.00000E+00
 -1       527 5.38740E+01 7.38350E+00 0.00000E+00
 -1       528 5.68740E+01 7.38350E+00 0.00000E+00
 -1       529 5.98740E+01 7.38350E+00 0.00000E+00
 -1       530 6.28740E+01 7.38350E+00 0.00000E+00
 -1       531 6.58740E+01 7.38350E+00 0.00000E+00
 -1       532 6.88740E+01 7.38350E+00 0.00000E+00
 -1       533 7.18740E+01 7.38350E+00 0.00000E+00
 -1       534 7.48740E+01 7.38350E+00 0.00000E+00
 -1       535 7.78740E+01 7.38350E+00 0.00000E+00
 -1       536 8.08740E+01 7.38350E+00 0.00000E+00
 -1       537 8.38740E+01 7.38350E+00 0.00000E+00
 -1       538 8.68740E+01 7.38350E+00 0.00000E+00
 -1       539 8.98740E+01 7.38350E+00 0.00000E+00
 -1       540 9.28740E+01 7.38350E+00 0.00000E+00
 -1       541 9.58740E+01 7.38350E+00 0.00000E+00
 -1       542 9.88740E+01 7.38350E+00 0.00000E+00
 -1       543 1.01874E+02 7.38350E+00 0.00000E+00
 -1       544 1.04874E+02 7.38350E+00 0.00000E+00
 -1       545 1.07874E+02 7.38350E+00 0.00000E+00
 -1       546 1.10874E+02 7.38350E+00 0.00000E+00
 -1       547 1.13874E+02 7.38350E+00 0.00000E+00
 -1       548 1.16874E+02 7.38350E+00 0.00000E+00
 -1       549 1.19874E+02 7.38350E+00 0.00000E+00
 -1       550 1.22874E+02 7.38350E+00 0.00000E+00
 -1       551 1.25874E+02 7.38350E+00 0.00000E+00
 -1       552 1.28874E+02 7.38350E+00 0.00000E+00
 -1       553 1.31874E+02 7.38350E+00 0.00000E+00
 -1       554 1.34874E+02 7.38350E+00 0.00000E+00
 -1       555 1.37874E+02 7.38350E+00 0.00000E+00
 -1       556 1.40874E+02 7.38350E+00 0.00000E+00
 -1       557 1.42206E+02 1.61750E+01 0.00000E+00
 -1       558 1.42206E+02 1.32750E+01 0.00000E+00
 -1       559 1.42206E+02 1.03250E+01 0.00000E+00
 -1       560 9.62171E+01 3.17202E+01 0.00000E+00
 -1       561 9.74795E+01 3.34064E+01 0.00000E+00
 -1       562 1.42206E+02 1.91250E+01 0.00000E+00
 -1       563 1.42206E+02 2.20750E+01 0.00000E+00
 -1       564 1.42206E+02 2.50250E+01 0.00000E+00
 -1       565 1.42206E+02 2.79750E+01 0.00000E+00
 -1       566 1.42206E+02 3.08750E+01 0.00000E+00
 -1       567 1.42206E+02 3.38250E+01 0.00000E+00
 -1       568 1.42206E+02 3.67750E+01 0.00000E+00
 -1       569 1.42206E+02 3.97250E+01 0.00000E+00
 -1       570 1.44820E+02 4.41968E+01 0.00000E+00
 -1       571 2.08740E+01 7.38350E+00 0.00000E+00
 -1       572 7.92300E+00 4.16780E+01 0.00000E+00
 -1       573 9.90089E+01 4.01427E+01 0.00000E+00
 -1       574 1.03875E+02 4.31339E+01 0.00000E+00
 -1       575 9.81194E+01 3.53260E+01 0.00000E+00
 -1       576 7.79400E+00 2.79000E+01 0.00000E+00
 -1       577 8.51945E+01 2.78310E+01 0.00000E+00
 -1       578 8.99514E+01 2.78533E+01 0.00000E+00
 -1       579 7.80079E+01 3.35376E+01 0.00000E+00
 -1       580 9.92393E+01 3.77647E+01 0.00000E+00
 -1       581 8.05526E+01 3.02329E+01 0.00000E+00
 -1       582 9.84847E+01 4.23336E+01 0.00000E+00
 -1       583 7.72188E+01 3.53050E+01 0.00000E+00