    1C
    1UUSER                                                              
    1UDATE              27.october.2022                                 
    1UTIME              01:16:37                                        
    1UHOST                                                              
    1UPGM               CalculiX                                        
    1UVERSION           Version 2.17                             
    1UCOMPILETIME       Thu Jul 23 21:43:50 CEST 2020                    
    1UDIR                                                               
    1UDBN                                                               
    1UMAT    1SOLIDMATERIAL                                             
    2C                          4300                                     1
 -1         1 7.96297E+01 4.26676E+01 0.00000E+00
 -1         2 8.66224E+01 3.56676E+01 0.00000E+00
 -1         3 1.50000E+02 0.00000E+00 0.00000E+00
 -1         4 1.50000E+02 5.00000E+01 0.00000E+00
 -1         5 0.00000E+00 0.00000E+00 0.00000E+00
 -1         6 0.00000E+00 5.00000E+01 0.00000E+00
 -1         7 0.00000E+00 4.70500E+01 0.00000E+00
 -1         8 0.00000E+00 4.41000E+01 0.00000E+00
 -1         9 0.00000E+00 4.11500E+01 0.00000E+00
 -1        10 0.00000E+00 3.82000E+01 0.00000E+00
 -1        11 0.00000E+00 3.52500E+01 0.00000E+00
 -1        12 0.00000E+00 3.23500E+01 0.00000E+00
 -1        13 0.00000E+00 2.94000E+01 0.00000E+00
 -1        14 0.00000E+00 2.64500E+01 0.00000E+00
 -1        15 0.00000E+00 2.35000E+01 0.00000E+00
 -1        16 0.00000E+00 2.05500E+01 0.00000E+00
 -1        17 0.00000E+00 1.76000E+01 0.00000E+00
 -1        18 0.00000E+00 1.47000E+01 0.00000E+00
 -1        19 0.00000E+00 1.17500E+01 0.00000E+00
 -1        20 0.00000E+00 8.80000E+00 0.00000E+00
 -1        21 0.00000E+00 5.85000E+00 0.00000E+00
 -1        22 0.00000E+00 2.90000E+00 0.00000E+00
 -1        23 3.15000E+00 5.00000E+01 0.00000E+00
 -1        24 6.15000E+00 5.00000E+01 0.00000E+00
 -1        25 9.15000E+00 5.00000E+01 0.00000E+00
 -1        26 1.21500E+01 5.00000E+01 0.00000E+00
 -1        27 1.51500E+01 5.00000E+01 0.00000E+00
 -1        28 1.81500E+01 5.00000E+01 0.00000E+00
 -1        29 2.13000E+01 5.00000E+01 0.00000E+00
 -1        30 2.43000E+01 5.00000E+01 0.00000E+00
 -1        31 2.73000E+01 5.00000E+01 0.00000E+00
 -1        32 3.03000E+01 5.00000E+01 0.00000E+00
 -1        33 3.33000E+01 5.00000E+01 0.00000E+00
 -1        34 3.63000E+01 5.00000E+01 0.00000E+00
 -1        35 3.94500E+01 5.00000E+01 0.00000E+00
 -1        36 4.24500E+01 5.00000E+01 0.00000E+00
 -1        37 4.54500E+01 5.00000E+01 0.00000E+00
 -1        38 4.84500E+01 5.00000E+01 0.00000E+00
 -1        39 5.14500E+01 5.00000E+01 0.00000E+00
 -1        40 5.44500E+01 5.00000E+01 0.00000E+00
 -1        41 5.76000E+01 5.00000E+01 0.00000E+00
 -1        42 6.06000E+01 5.00000E+01 0.00000E+00
 -1        43 6.36000E+01 5.00000E+01 0.00000E+00
 -1        44 6.66000E+01 5.00000E+01 0.00000E+00
 -1        45 6.96000E+01 5.00000E+01 0.00000E+00
 -1        46 7.26000E+01 5.00000E+01 0.00000E+00
 -1        47 7.56000E+01 5.00000E+01 0.00000E+00
 -1        48 7.86000E+01 5.00000E+01 0.00000E+00
 -1        49 8.10000E+01 5.00000E+01 0.00000E+00
 -1        50 8.38500E+01 5.00000E+01 0.00000E+00
 -1        51 8.65500E+01 5.00000E+01 0.00000E+00
 -1        52 8.95500E+01 5.00000E+01 0.00000E+00
 -1        53 9.25500E+01 5.00000E+01 0.00000E+00
 -1        54 9.57000E+01 5.00000E+01 0.00000E+00
 -1        55 9.87000E+01 5.00000E+01 0.00000E+00
 -1        56 1.01700E+02 5.00000E+01 0.00000E+00
 -1        57 1.04700E+02 5.00000E+01 0.00000E+00
 -1        58 1.07700E+02 5.00000E+01 0.00000E+00
 -1        59 1.10700E+02 5.00000E+01 0.00000E+00
 -1        60 1.13850E+02 5.00000E+01 0.00000E+00
 -1        61 1.16850E+02 5.00000E+01 0.00000E+00
 -1        62 1.19850E+02 5.00000E+01 0.00000E+00
 -1        63 1.22850E+02 5.00000E+01 0.00000E+00
 -1        64 1.25850E+02 5.00000E+01 0.00000E+00
 -1        65 1.28850E+02 5.00000E+01 0.00000E+00
 -1        66 1.32000E+02 5.00000E+01 0.00000E+00
 -1        67 1.35000E+02 5.00000E+01 0.00000E+00
 -1        68 1.38000E+02 5.00000E+01 0.00000E+00
 -1        69 1.41000E+02 5.00000E+01 0.00000E+00
 -1        70 1.44000E+02 5.00000E+01 0.00000E+00
 -1        71 1.47000E+02 5.00000E+01 0.00000E+00
 -1        72 3.15000E+00 0.00000E+00 0.00000E+00
 -1        73 6.15000E+00 0.00000E+00 0.00000E+00
 -1        74 9.15000E+00 0.00000E+00 0.00000E+00
 -1        75 1.21500E+01 0.00000E+00 0.00000E+00
 -1        76 1.51500E+01 0.00000E+00 0.00000E+00
 -1        77 1.81500E+01 0.00000E+00 0.00000E+00
 -1        78 2.11500E+01 0.00000E+00 0.00000E+00
 -1        79 2.41500E+01 0.00000E+00 0.00000E+00
 -1        80 2.71500E+01 0.00000E+00 0.00000E+00
 -1        81 3.01500E+01 0.00000E+00 0.00000E+00
 -1        82 3.31500E+01 0.00000E+00 0.00000E+00
 -1        83 3.61500E+01 0.00000E+00 0.00000E+00
 -1        84 3.91500E+01 0.00000E+00 0.00000E+00
 -1        85 4.21500E+01 0.00000E+00 0.00000E+00
 -1        86 4.51500E+01 0.00000E+00 0.00000E+00
 -1        87 4.81500E+01 0.00000E+00 0.00000E+00
 -1        88 5.11500E+01 0.00000E+00 0.00000E+00
 -1        89 5.41500E+01 0.00000E+00 0.00000E+00
 -1        90 5.71500E+01 0.00000E+00 0.00000E+00
 -1        91 6.01500E+01 0.00000E+00 0.00000E+00
 -1        92 6.31500E+01 0.00000E+00 0.00000E+00
 -1        93 6.61500E+01 0.00000E+00 0.00000E+00
 -1        94 6.91500E+01 0.00000E+00 0.00000E+00
 -1        95 7.21500E+01 0.00000E+00 0.00000E+00
 -1        96 7.51500E+01 0.00000E+00 0.00000E+00
 -1        97 7.81500E+01 0.00000E+00 0.00000E+00
 -1        98 8.11500E+01 0.00000E+00 0.00000E+00
 -1        99 8.41500E+01 0.00000E+00 0.00000E+00
 -1       100 8.71500E+01 0.00000E+00 0.00000E+00
 -1       101 9.01500E+01 0.00000E+00 0.00000E+00
 -1       102 9.31500E+01 0.00000E+00 0.00000E+00
 -1       103 9.61500E+01 0.00000E+00 0.00000E+00
 -1       104 9.91500E+01 0.00000E+00 0.00000E+00
 -1       105 1.02150E+02 0.00000E+00 0.00000E+00
 -1       106 1.05150E+02 0.00000E+00 0.00000E+00
 -1       107 1.08150E+02 0.00000E+00 0.00000E+00
 -1       108 1.11150E+02 0.00000E+00 0.00000E+00
 -1       109 1.14150E+02 0.00000E+00 0.00000E+00
 -1       110 1.17150E+02 0.00000E+00 0.00000E+00
 -1       111 1.20150E+02 0.00000E+00 0.00000E+00
 -1       112 1.23150E+02 0.00000E+00 0.00000E+00
 -1       113 1.26150E+02 0.00000E+00 0.00000E+00
 -1       114 1.29150E+02 0.00000E+00 0.00000E+00
 -1       115 1.32150E+02 0.00000E+00 0.00000E+00
 -1       116 1.35150E+02 0.00000E+00 0.00000E+00
 -1       117 1.38150E+02 0.00000E+00 0.00000E+00
 -1       118 1.41150E+02 0.00000E+00 0.00000E+00
 -1       119 1.44150E+02 0.00000E+00 0.00000E+00
 -1       120 1.47150E+02 0.00000E+00 0.00000E+00
 -1       121 1.50000E+02 2.95000E+00 0.00000E+00
 -1       122 1.50000E+02 5.90000E+00 0.00000E+00
 -1       123 1.50000E+02 8.85000E+00 0.00000E+00
 -1       124 1.50000E+02 1.18000E+01 0.00000E+00
 -1       125 1.50000E+02 1.47500E+01 0.00000E+00
 -1       126 1.50000E+02 1.76500E+01 0.00000E+00
 -1       127 1.50000E+02 2.06000E+01 0.00000E+00
 -1       128 1.50000E+02 2.35500E+01 0.00000E+00
 -1       129 1.50000E+02 2.65000E+01 0.00000E+00
 -1       130 1.50000E+02 2.94500E+01 0.00000E+00
 -1       131 1.50000E+02 3.24000E+01 0.00000E+00
 -1       132 1.50000E+02 3.53000E+01 0.00000E+00
 -1       133 1.50000E+02 3.82500E+01 0.00000E+00
 -1       134 1.50000E+02 4.12000E+01 0.00000E+00
 -1       135 1.50000E+02 4.41500E+01 0.00000E+00
 -1       136 1.50000E+02 4.71000E+01 0.00000E+00
 -1       137 8.64598E+01 3.41678E+01 0.00000E+00
 -1       138 8.59521E+01 3.26785E+01 0.00000E+00
 -1       139 8.51925E+01 3.14280E+01 0.00000E+00
 -1       140 8.41431E+01 3.03231E+01 0.00000E+00
 -1       141 8.29643E+01 2.95169E+01 0.00000E+00
 -1       142 8.15104E+01 2.89270E+01 0.00000E+00
 -1       143 8.00759E+01 2.86823E+01 0.00000E+00
 -1       144 7.85248E+01 2.87542E+01 0.00000E+00
 -1       145 7.70027E+01 2.91763E+01 0.00000E+00
 -1       146 7.56943E+01 2.98736E+01 0.00000E+00
 -1       147 7.46094E+01 3.07819E+01 0.00000E+00
 -1       148 7.37101E+01 3.19201E+01 0.00000E+00
 -1       149 7.30298E+01 3.33144E+01 0.00000E+00
 -1       150 7.26698E+01 3.48543E+01 0.00000E+00
 -1       151 7.26463E+01 3.62454E+01 0.00000E+00
 -1       152 7.29264E+01 3.77080E+01 0.00000E+00
 -1       153 7.34740E+01 3.90139E+01 0.00000E+00
 -1       154 7.43190E+01 4.02365E+01 0.00000E+00
 -1       155 7.54314E+01 4.12744E+01 0.00000E+00
 -1       156 7.66863E+01 4.20221E+01 0.00000E+00
 -1       157 7.81304E+01 4.25068E+01 0.00000E+00
 -1       158 8.09856E+01 4.25336E+01 0.00000E+00
 -1       159 8.23060E+01 4.21328E+01 0.00000E+00
 -1       160 8.34673E+01 4.15172E+01 0.00000E+00
 -1       161 8.45304E+01 4.06588E+01 0.00000E+00
 -1       162 8.53948E+01 3.96273E+01 0.00000E+00
 -1       163 8.60888E+01 3.83483E+01 0.00000E+00
 -1       164 8.64837E+01 3.70544E+01 0.00000E+00
 -1       165 2.59800E+00 4.55750E+01 0.00000E+00
 -1       166 2.59800E+00 4.26250E+01 0.00000E+00
 -1       167 2.59800E+00 3.96750E+01 0.00000E+00
 -1       168 2.59800E+00 3.67250E+01 0.00000E+00
 -1       169 2.59800E+00 3.38250E+01 0.00000E+00
 -1       170 2.59800E+00 3.08750E+01 0.00000E+00
 -1       171 2.59800E+00 2.79250E+01 0.00000E+00
 -1       172 2.59800E+00 2.49750E+01 0.00000E+00
 -1       173 2.59800E+00 2.20250E+01 0.00000E+00
 -1       174 2.59800E+00 1.90750E+01 0.00000E+00
 -1       175 2.59800E+00 1.61750E+01 0.00000E+00
 -1       176 2.59800E+00 1.32250E+01 0.00000E+00
 -1       177 2.59800E+00 1.02750E+01 0.00000E+00
 -1       178 2.59800E+00 7.32500E+00 0.00000E+00
 -1       179 2.59800E+00 4.37500E+00 0.00000E+00
 -1       180 2.87400E+00 2.18750E+00 0.00000E+00
 -1       181 4.65000E+00 4.74020E+01 0.00000E+00
 -1       182 7.65000E+00 4.74020E+01 0.00000E+00
 -1       183 1.06500E+01 4.74020E+01 0.00000E+00
 -1       184 1.36500E+01 4.74020E+01 0.00000E+00
 -1       185 1.66500E+01 4.74020E+01 0.00000E+00
 -1       186 1.98000E+01 4.74020E+01 0.00000E+00
 -1       187 2.28000E+01 4.74020E+01 0.00000E+00
 -1       188 2.58000E+01 4.74020E+01 0.00000E+00
 -1       189 2.88000E+01 4.74020E+01 0.00000E+00
 -1       190 3.18000E+01 4.74020E+01 0.00000E+00
 -1       191 3.48000E+01 4.74020E+01 0.00000E+00
 -1       192 3.79500E+01 4.74020E+01 0.00000E+00
 -1       193 4.09500E+01 4.74020E+01 0.00000E+00
 -1       194 4.39500E+01 4.74020E+01 0.00000E+00
 -1       195 4.69500E+01 4.74020E+01 0.00000E+00
 -1       196 4.99500E+01 4.74020E+01 0.00000E+00
 -1       197 5.29500E+01 4.74020E+01 0.00000E+00
 -1       198 5.61000E+01 4.74020E+01 0.00000E+00
 -1       199 5.91000E+01 4.74020E+01 0.00000E+00
 -1       200 6.21000E+01 4.74020E+01 0.00000E+00
 -1       201 6.51000E+01 4.74020E+01 0.00000E+00
 -1       202 6.81000E+01 4.74020E+01 0.00000E+00
 -1       203 7.11000E+01 4.74020E+01 0.00000E+00
 -1       204 7.41000E+01 4.74020E+01 0.00000E+00
 -1       205 7.71000E+01 4.74020E+01 0.00000E+00
 -1       206 7.95000E+01 4.74020E+01 0.00000E+00
 -1       207 8.23500E+01 4.74020E+01 0.00000E+00
 -1       208 8.50500E+01 4.74020E+01 0.00000E+00
 -1       209 8.80500E+01 4.74020E+01 0.00000E+00
 -1       210 9.10500E+01 4.74020E+01 0.00000E+00
 -1       211 9.42000E+01 4.74020E+01 0.00000E+00
 -1       212 9.72000E+01 4.74020E+01 0.00000E+00
 -1       213 1.00200E+02 4.74020E+01 0.00000E+00
 -1       214 1.03200E+02 4.74020E+01 0.00000E+00
 -1       215 1.06200E+02 4.74020E+01 0.00000E+00
 -1       216 1.09200E+02 4.74020E+01 0.00000E+00
 -1       217 1.12350E+02 4.74020E+01 0.00000E+00
 -1       218 1.15350E+02 4.74020E+01 0.00000E+00
 -1       219 1.18350E+02 4.74020E+01 0.00000E+00
 -1       220 1.21350E+02 4.74020E+01 0.00000E+00
 -1       221 1.24350E+02 4.74020E+01 0.00000E+00
 -1       222 1.27350E+02 4.74020E+01 0.00000E+00
 -1       223 1.30500E+02 4.74020E+01 0.00000E+00
 -1       224 1.33500E+02 4.74020E+01 0.00000E+00
 -1       225 1.36500E+02 4.74020E+01 0.00000E+00
 -1       226 1.39500E+02 4.74020E+01 0.00000E+00
 -1       227 1.42500E+02 4.74020E+01 0.00000E+00
 -1       228 1.45500E+02 4.74020E+01 0.00000E+00
 -1       229 1.47750E+02 4.72510E+01 0.00000E+00
 -1       230 5.87400E+00 2.18750E+00 0.00000E+00
 -1       231 8.87400E+00 2.18750E+00 0.00000E+00
 -1       232 1.18740E+01 2.18750E+00 0.00000E+00
 -1       233 1.48740E+01 2.18750E+00 0.00000E+00
 -1       234 1.78740E+01 2.18750E+00 0.00000E+00
 -1       235 2.08740E+01 2.18750E+00 0.00000E+00
 -1       236 2.38740E+01 2.18750E+00 0.00000E+00
 -1       237 2.68740E+01 2.18750E+00 0.00000E+00
 -1       238 2.98740E+01 2.18750E+00 0.00000E+00
 -1       239 3.28740E+01 2.18750E+00 0.00000E+00
 -1       240 3.58740E+01 2.18750E+00 0.00000E+00
 -1       241 3.88740E+01 2.18750E+00 0.00000E+00
 -1       242 4.18740E+01 2.18750E+00 0.00000E+00
 -1       243 4.48740E+01 2.18750E+00 0.00000E+00
 -1       244 4.78740E+01 2.18750E+00 0.00000E+00
 -1       245 5.08740E+01 2.18750E+00 0.00000E+00
 -1       246 5.38740E+01 2.18750E+00 0.00000E+00
 -1       247 5.68740E+01 2.18750E+00 0.00000E+00
 -1       248 5.98740E+01 2.18750E+00 0.00000E+00
 -1       249 6.28740E+01 2.18750E+00 0.00000E+00
 -1       250 6.58740E+01 2.18750E+00 0.00000E+00
 -1       251 6.88740E+01 2.18750E+00 0.00000E+00
 -1       252 7.18740E+01 2.18750E+00 0.00000E+00
 -1       253 7.48740E+01 2.18750E+00 0.00000E+00
 -1       254 7.78740E+01 2.18750E+00 0.00000E+00
 -1       255 8.08740E+01 2.18750E+00 0.00000E+00
 -1       256 8.38740E+01 2.18750E+00 0.00000E+00
 -1       257 8.68740E+01 2.18750E+00 0.00000E+00
 -1       258 8.98740E+01 2.18750E+00 0.00000E+00
 -1       259 9.28740E+01 2.18750E+00 0.00000E+00
 -1       260 9.58740E+01 2.18750E+00 0.00000E+00
 -1       261 9.88740E+01 2.18750E+00 0.00000E+00
 -1       262 1.01874E+02 2.18750E+00 0.00000E+00
 -1       263 1.04874E+02 2.18750E+00 0.00000E+00
 -1       264 1.07874E+02 2.18750E+00 0.00000E+00
 -1       265 1.10874E+02 2.18750E+00 0.00000E+00
 -1       266 1.13874E+02 2.18750E+00 0.00000E+00
 -1       267 1.16874E+02 2.18750E+00 0.00000E+00
 -1       268 1.19874E+02 2.18750E+00 0.00000E+00
 -1       269 1.22874E+02 2.18750E+00 0.00000E+00
 -1       270 1.25874E+02 2.18750E+00 0.00000E+00
 -1       271 1.28874E+02 2.18750E+00 0.00000E+00
 -1       272 1.31874E+02 2.18750E+00 0.00000E+00
 -1       273 1.34874E+02 2.18750E+00 0.00000E+00
 -1       274 1.37874E+02 2.18750E+00 0.00000E+00
 -1       275 1.40874E+02 2.18750E+00 0.00000E+00
 -1       276 1.43874E+02 2.18750E+00 0.00000E+00
 -1       277 1.46874E+02 2.18750E+00 0.00000E+00
 -1       278 1.47402E+02 4.42500E+00 0.00000E+00
 -1       279 1.47402E+02 7.37500E+00 0.00000E+00
 -1       280 1.47402E+02 1.03250E+01 0.00000E+00
 -1       281 1.47402E+02 1.32750E+01 0.00000E+00
 -1       282 1.47402E+02 1.61750E+01 0.00000E+00
 -1       283 1.47402E+02 1.91250E+01 0.00000E+00
 -1       284 1.47402E+02 2.20750E+01 0.00000E+00
 -1       285 1.47402E+02 2.50250E+01 0.00000E+00
 -1       286 1.47402E+02 2.79750E+01 0.00000E+00
 -1       287 1.47402E+02 3.09250E+01 0.00000E+00
 -1       288 1.47402E+02 3.38250E+01 0.00000E+00
 -1       289 1.47402E+02 3.67750E+01 0.00000E+00
 -1       290 1.47402E+02 3.97250E+01 0.00000E+00
 -1       291 1.47402E+02 4.26750E+01 0.00000E+00
 -1       292 1.47576E+02 4.49630E+01 0.00000E+00
 -1       293 8.79131E+01 3.47690E+01 0.00000E+00
 -1       294 8.76707E+01 3.29238E+01 0.00000E+00
 -1       295 8.66085E+01 3.14238E+01 0.00000E+00
 -1       296 8.56076E+01 2.99830E+01 0.00000E+00
 -1       297 8.42855E+01 2.88502E+01 0.00000E+00
 -1       298 8.27876E+01 2.78656E+01 0.00000E+00
 -1       299 8.09970E+01 2.76096E+01 0.00000E+00
 -1       300 7.92365E+01 2.73398E+01 0.00000E+00
 -1       301 7.73726E+01 2.75547E+01 0.00000E+00
 -1       302 7.57389E+01 2.83811E+01 0.00000E+00
 -1       303 7.43736E+01 2.93982E+01 0.00000E+00
 -1       304 7.32085E+01 3.05993E+01 0.00000E+00
 -1       305 7.21297E+01 3.20122E+01 0.00000E+00
 -1       306 7.13429E+01 3.37321E+01 0.00000E+00
 -1       307 7.14458E+01 3.55294E+01 0.00000E+00
 -1       308 7.15133E+01 3.72205E+01 0.00000E+00
 -1       309 7.20821E+01 3.88298E+01 0.00000E+00
 -1       310 7.27613E+01 4.04098E+01 0.00000E+00
 -1       311 7.39338E+01 4.17644E+01 0.00000E+00
 -1       312 7.54383E+01 4.26898E+01 0.00000E+00
 -1       313 7.69959E+01 4.34933E+01 0.00000E+00
 -1       314 7.87418E+01 4.38760E+01 0.00000E+00
 -1       315 8.04269E+01 4.38071E+01 0.00000E+00
 -1       316 8.19980E+01 4.34933E+01 0.00000E+00
 -1       317 8.34545E+01 4.28962E+01 0.00000E+00
 -1       318 8.47604E+01 4.20313E+01 0.00000E+00
 -1       319 8.58918E+01 4.09218E+01 0.00000E+00
 -1       320 8.69547E+01 3.96459E+01 0.00000E+00
 -1       321 8.74458E+01 3.80552E+01 0.00000E+00
 -1       322 8.78428E+01 3.64900E+01 0.00000E+00
 -1       323 5.19600E+00 4.11500E+01 0.00000E+00
 -1       324 5.19600E+00 4.41000E+01 0.00000E+00
 -1       325 5.19600E+00 3.52750E+01 0.00000E+00
 -1       326 5.19600E+00 3.23250E+01 0.00000E+00
 -1       327 5.19600E+00 2.93750E+01 0.00000E+00
 -1       328 5.19600E+00 2.64250E+01 0.00000E+00
 -1       329 5.19600E+00 2.34750E+01 0.00000E+00
 -1       330 5.19600E+00 2.05250E+01 0.00000E+00
 -1       331 5.19600E+00 1.76250E+01 0.00000E+00
 -1       332 5.19600E+00 1.46750E+01 0.00000E+00
 -1       333 5.19600E+00 1.17250E+01 0.00000E+00
 -1       334 5.19600E+00 8.77500E+00 0.00000E+00
 -1       335 5.19600E+00 5.82500E+00 0.00000E+00
 -1       336 5.53500E+00 4.00625E+00 0.00000E+00
 -1       337 8.53500E+00 4.00625E+00 0.00000E+00
 -1       338 9.15000E+00 4.48040E+01 0.00000E+00
 -1       339 1.21500E+01 4.48040E+01 0.00000E+00
 -1       340 1.51500E+01 4.48040E+01 0.00000E+00
 -1       341 1.83000E+01 4.48040E+01 0.00000E+00
 -1       342 2.13000E+01 4.48040E+01 0.00000E+00
 -1       343 2.43000E+01 4.48040E+01 0.00000E+00
 -1       344 2.73000E+01 4.48040E+01 0.00000E+00
 -1       345 3.03000E+01 4.48040E+01 0.00000E+00
 -1       346 3.33000E+01 4.48040E+01 0.00000E+00
 -1       347 3.64500E+01 4.48040E+01 0.00000E+00
 -1       348 3.94500E+01 4.48040E+01 0.00000E+00
 -1       349 4.24500E+01 4.48040E+01 0.00000E+00
 -1       350 4.54500E+01 4.48040E+01 0.00000E+00
 -1       351 4.84500E+01 4.48040E+01 0.00000E+00
 -1       352 5.14500E+01 4.48040E+01 0.00000E+00
 -1       353 5.46000E+01 4.48040E+01 0.00000E+00
 -1       354 5.76000E+01 4.48040E+01 0.00000E+00
 -1       355 6.06000E+01 4.48040E+01 0.00000E+00
 -1       356 6.36000E+01 4.48040E+01 0.00000E+00
 -1       357 6.66000E+01 4.48040E+01 0.00000E+00
 -1       358 6.96000E+01 4.48040E+01 0.00000E+00
 -1       359 7.26000E+01 4.48040E+01 0.00000E+00
 -1       360 7.83000E+01 4.53517E+01 0.00000E+00
 -1       361 8.09250E+01 4.53517E+01 0.00000E+00
 -1       362 8.37000E+01 4.51842E+01 0.00000E+00
 -1       363 8.67000E+01 4.51842E+01 0.00000E+00
 -1       364 8.97000E+01 4.51842E+01 0.00000E+00
 -1       365 9.28500E+01 4.51842E+01 0.00000E+00
 -1       366 9.58500E+01 4.51842E+01 0.00000E+00
 -1       367 9.88500E+01 4.51842E+01 0.00000E+00
 -1       368 1.01850E+02 4.51842E+01 0.00000E+00
 -1       369 1.04850E+02 4.51842E+01 0.00000E+00
 -1       370 1.07850E+02 4.51842E+01 0.00000E+00
 -1       371 1.11000E+02 4.51842E+01 0.00000E+00
 -1       372 1.14000E+02 4.51842E+01 0.00000E+00
 -1       373 1.17000E+02 4.51842E+01 0.00000E+00
 -1       374 1.20000E+02 4.51842E+01 0.00000E+00
 -1       375 1.23000E+02 4.51842E+01 0.00000E+00
 -1       376 1.26000E+02 4.51842E+01 0.00000E+00
 -1       377 1.29150E+02 4.51842E+01 0.00000E+00
 -1       378 1.32150E+02 4.51842E+01 0.00000E+00
 -1       379 1.35150E+02 4.51842E+01 0.00000E+00
 -1       380 1.38150E+02 4.51842E+01 0.00000E+00
 -1       381 1.41150E+02 4.51842E+01 0.00000E+00
 -1       382 1.44150E+02 4.51842E+01 0.00000E+00
 -1       383 1.33740E+01 4.78550E+00 0.00000E+00
 -1       384 1.63740E+01 4.78550E+00 0.00000E+00
 -1       385 1.93740E+01 4.78550E+00 0.00000E+00
 -1       386 2.23740E+01 4.78550E+00 0.00000E+00
 -1       387 2.53740E+01 4.78550E+00 0.00000E+00
 -1       388 2.83740E+01 4.78550E+00 0.00000E+00
 -1       389 3.13740E+01 4.78550E+00 0.00000E+00
 -1       390 3.43740E+01 4.78550E+00 0.00000E+00
 -1       391 3.73740E+01 4.78550E+00 0.00000E+00
 -1       392 4.03740E+01 4.78550E+00 0.00000E+00
 -1       393 4.33740E+01 4.78550E+00 0.00000E+00
 -1       394 4.63740E+01 4.78550E+00 0.00000E+00
 -1       395 4.93740E+01 4.78550E+00 0.00000E+00
 -1       396 5.23740E+01 4.78550E+00 0.00000E+00
 -1       397 5.53740E+01 4.78550E+00 0.00000E+00
 -1       398 5.83740E+01 4.78550E+00 0.00000E+00
 -1       399 6.13740E+01 4.78550E+00 0.00000E+00
 -1       400 6.43740E+01 4.78550E+00 0.00000E+00
 -1       401 6.73740E+01 4.78550E+00 0.00000E+00
 -1       402 7.03740E+01 4.78550E+00 0.00000E+00
 -1       403 7.33740E+01 4.78550E+00 0.00000E+00
 -1       404 7.63740E+01 4.78550E+00 0.00000E+00
 -1       405 7.93740E+01 4.78550E+00 0.00000E+00
 -1       406 8.23740E+01 4.78550E+00 0.00000E+00
 -1       407 8.53740E+01 4.78550E+00 0.00000E+00
 -1       408 8.83740E+01 4.78550E+00 0.00000E+00
 -1       409 9.13740E+01 4.78550E+00 0.00000E+00
 -1       410 9.43740E+01 4.78550E+00 0.00000E+00
 -1       411 9.73740E+01 4.78550E+00 0.00000E+00
 -1       412 1.00374E+02 4.78550E+00 0.00000E+00
 -1       413 1.03374E+02 4.78550E+00 0.00000E+00
 -1       414 1.06374E+02 4.78550E+00 0.00000E+00
 -1       415 1.09374E+02 4.78550E+00 0.00000E+00
 -1       416 1.12374E+02 4.78550E+00 0.00000E+00
 -1       417 1.15374E+02 4.78550E+00 0.00000E+00
 -1       418 1.18374E+02 4.78550E+00 0.00000E+00
 -1       419 1.21374E+02 4.78550E+00 0.00000E+00
 -1       420 1.24374E+02 4.78550E+00 0.00000E+00
 -1       421 1.27374E+02 4.78550E+00 0.00000E+00
 -1       422 1.30374E+02 4.78550E+00 0.00000E+00
 -1       423 1.33374E+02 4.78550E+00 0.00000E+00
 -1       424 1.36374E+02 4.78550E+00 0.00000E+00
 -1       425 1.39374E+02 4.78550E+00 0.00000E+00
 -1       426 1.42374E+02 4.78550E+00 0.00000E+00
 -1       427 1.44888E+02 4.60525E+00 0.00000E+00
 -1       428 1.44804E+02 1.18000E+01 0.00000E+00
 -1       429 1.44804E+02 8.85000E+00 0.00000E+00
 -1       430 1.44804E+02 1.47000E+01 0.00000E+00
 -1       431 1.44804E+02 1.76500E+01 0.00000E+00
 -1       432 1.44804E+02 2.06000E+01 0.00000E+00
 -1       433 1.44804E+02 2.35500E+01 0.00000E+00
 -1       434 1.44804E+02 2.65000E+01 0.00000E+00
 -1       435 1.44804E+02 2.94500E+01 0.00000E+00
 -1       436 1.44804E+02 3.23500E+01 0.00000E+00
 -1       437 1.44804E+02 3.53000E+01 0.00000E+00
 -1       438 1.44804E+02 3.82500E+01 0.00000E+00
 -1       439 1.44804E+02 4.12000E+01 0.00000E+00
 -1       440 1.09545E+01 4.39587E+00 0.00000E+00
 -1       441 8.82658E+01 3.13762E+01 0.00000E+00
 -1       442 8.59534E+01 2.82414E+01 0.00000E+00
 -1       443 8.92567E+01 3.56858E+01 0.00000E+00
 -1       444 8.72649E+01 2.99354E+01 0.00000E+00
 -1       445 5.19600E+00 3.82125E+01 0.00000E+00
 -1       446 8.42946E+01 2.72047E+01 0.00000E+00
 -1       447 8.20995E+01 2.62886E+01 0.00000E+00
 -1       448 8.03390E+01 2.60188E+01 0.00000E+00
 -1       449 7.81273E+01 2.59099E+01 0.00000E+00
 -1       450 7.58194E+01 2.65122E+01 0.00000E+00
 -1       451 7.44542E+01 2.75293E+01 0.00000E+00
 -1       452 7.26802E+01 2.89213E+01 0.00000E+00
 -1       453 7.15723E+01 3.04683E+01 0.00000E+00
 -1       454 7.02528E+01 3.21935E+01 0.00000E+00
 -1       455 6.97657E+01 3.47240E+01 0.00000E+00
 -1       456 6.98332E+01 3.64151E+01 0.00000E+00
 -1       457 7.05756E+01 3.84571E+01 0.00000E+00
 -1       458 7.11539E+01 4.01648E+01 0.00000E+00
 -1       459 7.21141E+01 4.21547E+01 0.00000E+00
 -1       460 7.39192E+01 4.34739E+01 0.00000E+00
 -1       461 7.55461E+01 4.43924E+01 0.00000E+00
 -1       462 8.64097E+01 4.25815E+01 0.00000E+00
 -1       463 8.74726E+01 4.13056E+01 0.00000E+00
 -1       464 8.85989E+01 3.92824E+01 0.00000E+00
 -1       465 8.89959E+01 3.77172E+01 0.00000E+00
 -1       466 8.90770E+01 3.36776E+01 0.00000E+00
 -1       467 7.56000E+01 4.51842E+01 0.00000E+00
 -1       468 1.44477E+02 4.31921E+01 0.00000E+00
 -1       469 8.96721E+01 3.21301E+01 0.00000E+00
 -1       470 8.57302E+01 4.36077E+01 0.00000E+00
 -1       471 7.79400E+00 3.08500E+01 0.00000E+00
 -1       472 7.79400E+00 3.38000E+01 0.00000E+00
 -1       473 7.79400E+00 2.49500E+01 0.00000E+00
 -1       474 7.79400E+00 2.20000E+01 0.00000E+00
 -1       475 7.79400E+00 1.91000E+01 0.00000E+00
 -1       476 7.79400E+00 1.61500E+01 0.00000E+00
 -1       477 7.79400E+00 1.32000E+01 0.00000E+00
 -1       478 7.79400E+00 1.02500E+01 0.00000E+00
 -1       479 7.79400E+00 7.30000E+00 0.00000E+00
 -1       480 8.16450E+00 5.65312E+00 0.00000E+00
 -1       481 1.06500E+01 4.22060E+01 0.00000E+00
 -1       482 1.36500E+01 4.22060E+01 0.00000E+00
 -1       483 1.68000E+01 4.22060E+01 0.00000E+00
 -1       484 1.98000E+01 4.22060E+01 0.00000E+00
 -1       485 2.28000E+01 4.22060E+01 0.00000E+00
 -1       486 2.58000E+01 4.22060E+01 0.00000E+00
 -1       487 2.88000E+01 4.22060E+01 0.00000E+00
 -1       488 3.18000E+01 4.22060E+01 0.00000E+00
 -1       489 3.49500E+01 4.22060E+01 0.00000E+00
 -1       490 3.79500E+01 4.22060E+01 0.00000E+00
 -1       491 4.09500E+01 4.22060E+01 0.00000E+00
 -1       492 4.39500E+01 4.22060E+01 0.00000E+00
 -1       493 4.69500E+01 4.22060E+01 0.00000E+00
 -1       494 4.99500E+01 4.22060E+01 0.00000E+00
 -1       495 5.31000E+01 4.22060E+01 0.00000E+00
 -1       496 5.61000E+01 4.22060E+01 0.00000E+00
 -1       497 5.91000E+01 4.22060E+01 0.00000E+00
 -1       498 6.21000E+01 4.22060E+01 0.00000E+00
 -1       499 6.51000E+01 4.22060E+01 0.00000E+00
 -1       500 6.81000E+01 4.22060E+01 0.00000E+00
 -1       501 8.59441E+01 2.64107E+01 0.00000E+00
 -1       502 8.87302E+01 4.36077E+01 0.00000E+00
 -1       503 9.18802E+01 4.36077E+01 0.00000E+00
 -1       504 9.48802E+01 4.36077E+01 0.00000E+00
 -1       505 9.78802E+01 4.36077E+01 0.00000E+00
 -1       506 1.00880E+02 4.36077E+01 0.00000E+00
 -1       507 1.03880E+02 4.36077E+01 0.00000E+00
 -1       508 1.06880E+02 4.36077E+01 0.00000E+00
 -1       509 1.10030E+02 4.36077E+01 0.00000E+00
 -1       510 1.13030E+02 4.36077E+01 0.00000E+00
 -1       511 1.16030E+02 4.36077E+01 0.00000E+00
 -1       512 1.19030E+02 4.36077E+01 0.00000E+00
 -1       513 1.22030E+02 4.36077E+01 0.00000E+00
 -1       514 1.25030E+02 4.36077E+01 0.00000E+00
 -1       515 1.28180E+02 4.36077E+01 0.00000E+00
 -1       516 1.31180E+02 4.36077E+01 0.00000E+00
 -1       517 1.34180E+02 4.36077E+01 0.00000E+00
 -1       518 1.37180E+02 4.36077E+01 0.00000E+00
 -1       519 1.40180E+02 4.36077E+01 0.00000E+00
 -1       520 1.42329E+02 4.33999E+01 0.00000E+00
 -1       521 2.08740E+01 7.38350E+00 0.00000E+00
 -1       522 1.78740E+01 7.38350E+00 0.00000E+00
 -1       523 1.48740E+01 7.38350E+00 0.00000E+00
 -1       524 2.38740E+01 7.38350E+00 0.00000E+00
 -1       525 2.68740E+01 7.38350E+00 0.00000E+00
 -1       526 2.98740E+01 7.38350E+00 0.00000E+00
 -1       527 3.28740E+01 7.38350E+00 0.00000E+00
 -1       528 3.58740E+01 7.38350E+00 0.00000E+00
 -1       529 3.88740E+01 7.38350E+00 0.00000E+00
 -1       530 4.18740E+01 7.38350E+00 0.00000E+00
 -1       531 4.48740E+01 7.38350E+00 0.00000E+00
 -1       532 4.78740E+01 7.38350E+00 0.00000E+00
 -1       533 5.08740E+01 7.38350E+00 0.00000E+00
 -1       534 5.38740E+01 7.38350E+00 0.00000E+00
 -1       535 5.68740E+01 7.38350E+00 0.00000E+00
 -1       536 5.98740E+01 7.38350E+00 0.00000E+00
 -1       537 6.28740E+01 7.38350E+00 0.00000E+00
 -1       538 6.58740E+01 7.38350E+00 0.00000E+00
 -1       539 6.88740E+01 7.38350E+00 0.00000E+00
 -1       540 7.18740E+01 7.38350E+00 0.00000E+00
 -1       541 7.48740E+01 7.38350E+00 0.00000E+00
 -1       542 7.78740E+01 7.38350E+00 0.00000E+00
 -1       543 8.08740E+01 7.38350E+00 0.00000E+00
 -1       544 8.38740E+01 7.38350E+00 0.00000E+00
 -1       545 8.68740E+01 7.38350E+00 0.00000E+00
 -1       546 8.98740E+01 7.38350E+00 0.00000E+00
 -1       547 9.28740E+01 7.38350E+00 0.00000E+00
 -1       548 9.58740E+01 7.38350E+00 0.00000E+00
 -1       549 9.88740E+01 7.38350E+00 0.00000E+00
 -1       550 1.01874E+02 7.38350E+00 0.00000E+00
 -1       551 1.04874E+02 7.38350E+00 0.00000E+00
 -1       552 1.07874E+02 7.38350E+00 0.00000E+00
 -1       553 1.10874E+02 7.38350E+00 0.00000E+00
 -1       554 1.13874E+02 7.38350E+00 0.00000E+00
 -1       555 1.16874E+02 7.38350E+00 0.00000E+00
 -1       556 1.19874E+02 7.38350E+00 0.00000E+00
 -1       557 1.22874E+02 7.38350E+00 0.00000E+00
 -1       558 1.25874E+02 7.38350E+00 0.00000E+00
 -1       559 1.28874E+02 7.38350E+00 0.00000E+00
 -1       560 1.31874E+02 7.38350E+00 0.00000E+00
 -1       561 1.34874E+02 7.38350E+00 0.00000E+00
 -1       562 1.37874E+02 7.38350E+00 0.00000E+00
 -1       563 1.40874E+02 7.38350E+00 0.00000E+00
 -1       564 1.42206E+02 1.61750E+01 0.00000E+00
 -1       565 1.42206E+02 1.32750E+01 0.00000E+00
 -1       566 1.42206E+02 1.03250E+01 0.00000E+00
 -1       567 9.06248E+01 3.45512E+01 0.00000E+00
 -1       568 1.42206E+02 1.91250E+01 0.00000E+00
 -1       569 1.42206E+02 2.20750E+01 0.00000E+00
 -1       570 1.42206E+02 2.50250E+01 0.00000E+00
 -1       571 1.42206E+02 2.79750E+01 0.00000E+00
 -1       572 1.42206E+02 3.08750E+01 0.00000E+00
 -1       573 1.42206E+02 3.38250E+01 0.00000E+00
 -1       574 1.42206E+02 3.67750E+01 0.00000E+00
 -1       575 1.42206E+02 3.97250E+01 0.00000E+00
 -1       576 7.92300E+00 4.16780E+01 0.00000E+00
 -1       577 8.91740E+01 2.96773E+01 0.00000E+00
 -1       578 8.95343E+01 4.11282E+01 0.00000E+00
 -1       579 6.79960E+01 3.30712E+01 0.00000E+00
 -1       580 7.93257E+01 2.40840E+01 0.00000E+00
 -1       581 9.08275E+01 3.69200E+01 0.00000E+00
 -1       582 7.79400E+00 2.79000E+01 0.00000E+00
 -1       583 8.38577E+01 2.51639E+01 0.00000E+00