    1C
    1UUSER                                                              
    1UDATE              27.october.2022                                 
    1UTIME              00:21:20                                        
    1UHOST                                                              
    1UPGM               CalculiX                                        
    1UVERSION           Version 2.17                             
    1UCOMPILETIME       Thu Jul 23 21:43:50 CEST 2020                    
    1UDIR                                                               
    1UDBN                                                               
    1UMAT    1SOLIDMATERIAL                                             
    2C                          4285                                     1
 -1         1 4.36314E+01 2.25758E+01 0.00000E+00
 -1         2 4.99652E+01 1.56076E+01 0.00000E+00
 -1         3 1.50000E+02 0.00000E+00 0.00000E+00
 -1         4 1.50000E+02 5.00000E+01 0.00000E+00
 -1         5 0.00000E+00 0.00000E+00 0.00000E+00
 -1         6 0.00000E+00 5.00000E+01 0.00000E+00
 -1         7 0.00000E+00 4.70500E+01 0.00000E+00
 -1         8 0.00000E+00 4.41000E+01 0.00000E+00
 -1         9 0.00000E+00 4.11500E+01 0.00000E+00
 -1        10 0.00000E+00 3.82000E+01 0.00000E+00
 -1        11 0.00000E+00 3.52500E+01 0.00000E+00
 -1        12 0.00000E+00 3.23500E+01 0.00000E+00
 -1        13 0.00000E+00 2.94000E+01 0.00000E+00
 -1        14 0.00000E+00 2.64500E+01 0.00000E+00
 -1        15 0.00000E+00 2.35000E+01 0.00000E+00
 -1        16 0.00000E+00 2.05500E+01 0.00000E+00
 -1        17 0.00000E+00 1.76000E+01 0.00000E+00
 -1        18 0.00000E+00 1.47000E+01 0.00000E+00
 -1        19 0.00000E+00 1.17500E+01 0.00000E+00
 -1        20 0.00000E+00 8.80000E+00 0.00000E+00
 -1        21 0.00000E+00 5.85000E+00 0.00000E+00
 -1        22 0.00000E+00 2.90000E+00 0.00000E+00
 -1        23 3.15000E+00 5.00000E+01 0.00000E+00
 -1        24 6.15000E+00 5.00000E+01 0.00000E+00
 -1        25 9.15000E+00 5.00000E+01 0.00000E+00
 -1        26 1.21500E+01 5.00000E+01 0.00000E+00
 -1        27 1.51500E+01 5.00000E+01 0.00000E+00
 -1        28 1.81500E+01 5.00000E+01 0.00000E+00
 -1        29 2.11500E+01 5.00000E+01 0.00000E+00
 -1        30 2.41500E+01 5.00000E+01 0.00000E+00
 -1        31 2.71500E+01 5.00000E+01 0.00000E+00
 -1        32 3.01500E+01 5.00000E+01 0.00000E+00
 -1        33 3.31500E+01 5.00000E+01 0.00000E+00
 -1        34 3.61500E+01 5.00000E+01 0.00000E+00
 -1        35 3.91500E+01 5.00000E+01 0.00000E+00
 -1        36 4.21500E+01 5.00000E+01 0.00000E+00
 -1        37 4.51500E+01 5.00000E+01 0.00000E+00
 -1        38 4.81500E+01 5.00000E+01 0.00000E+00
 -1        39 5.11500E+01 5.00000E+01 0.00000E+00
 -1        40 5.41500E+01 5.00000E+01 0.00000E+00
 -1        41 5.71500E+01 5.00000E+01 0.00000E+00
 -1        42 6.01500E+01 5.00000E+01 0.00000E+00
 -1        43 6.31500E+01 5.00000E+01 0.00000E+00
 -1        44 6.61500E+01 5.00000E+01 0.00000E+00
 -1        45 6.91500E+01 5.00000E+01 0.00000E+00
 -1        46 7.21500E+01 5.00000E+01 0.00000E+00
 -1        47 7.51500E+01 5.00000E+01 0.00000E+00
 -1        48 7.81500E+01 5.00000E+01 0.00000E+00
 -1        49 8.11500E+01 5.00000E+01 0.00000E+00
 -1        50 8.41500E+01 5.00000E+01 0.00000E+00
 -1        51 8.71500E+01 5.00000E+01 0.00000E+00
 -1        52 9.01500E+01 5.00000E+01 0.00000E+00
 -1        53 9.31500E+01 5.00000E+01 0.00000E+00
 -1        54 9.61500E+01 5.00000E+01 0.00000E+00
 -1        55 9.91500E+01 5.00000E+01 0.00000E+00
 -1        56 1.02150E+02 5.00000E+01 0.00000E+00
 -1        57 1.05150E+02 5.00000E+01 0.00000E+00
 -1        58 1.08150E+02 5.00000E+01 0.00000E+00
 -1        59 1.11150E+02 5.00000E+01 0.00000E+00
 -1        60 1.14150E+02 5.00000E+01 0.00000E+00
 -1        61 1.17150E+02 5.00000E+01 0.00000E+00
 -1        62 1.20150E+02 5.00000E+01 0.00000E+00
 -1        63 1.23150E+02 5.00000E+01 0.00000E+00
 -1        64 1.26150E+02 5.00000E+01 0.00000E+00
 -1        65 1.29150E+02 5.00000E+01 0.00000E+00
 -1        66 1.32150E+02 5.00000E+01 0.00000E+00
 -1        67 1.35150E+02 5.00000E+01 0.00000E+00
 -1        68 1.38150E+02 5.00000E+01 0.00000E+00
 -1        69 1.41150E+02 5.00000E+01 0.00000E+00
 -1        70 1.44150E+02 5.00000E+01 0.00000E+00
 -1        71 1.47150E+02 5.00000E+01 0.00000E+00
 -1        72 3.15000E+00 0.00000E+00 0.00000E+00
 -1        73 6.15000E+00 0.00000E+00 0.00000E+00
 -1        74 9.15000E+00 0.00000E+00 0.00000E+00
 -1        75 1.21500E+01 0.00000E+00 0.00000E+00
 -1        76 1.51500E+01 0.00000E+00 0.00000E+00
 -1        77 1.81500E+01 0.00000E+00 0.00000E+00
 -1        78 2.11500E+01 0.00000E+00 0.00000E+00
 -1        79 2.41500E+01 0.00000E+00 0.00000E+00
 -1        80 2.73000E+01 0.00000E+00 0.00000E+00
 -1        81 3.03000E+01 0.00000E+00 0.00000E+00
 -1        82 3.33000E+01 0.00000E+00 0.00000E+00
 -1        83 3.63000E+01 0.00000E+00 0.00000E+00
 -1        84 3.93000E+01 0.00000E+00 0.00000E+00
 -1        85 4.18500E+01 0.00000E+00 0.00000E+00
 -1        86 4.48500E+01 0.00000E+00 0.00000E+00
 -1        87 4.77000E+01 0.00000E+00 0.00000E+00
 -1        88 5.05500E+01 0.00000E+00 0.00000E+00
 -1        89 5.35500E+01 0.00000E+00 0.00000E+00
 -1        90 5.65500E+01 0.00000E+00 0.00000E+00
 -1        91 5.95500E+01 0.00000E+00 0.00000E+00
 -1        92 6.25500E+01 0.00000E+00 0.00000E+00
 -1        93 6.55500E+01 0.00000E+00 0.00000E+00
 -1        94 6.85500E+01 0.00000E+00 0.00000E+00
 -1        95 7.17000E+01 0.00000E+00 0.00000E+00
 -1        96 7.47000E+01 0.00000E+00 0.00000E+00
 -1        97 7.77000E+01 0.00000E+00 0.00000E+00
 -1        98 8.07000E+01 0.00000E+00 0.00000E+00
 -1        99 8.37000E+01 0.00000E+00 0.00000E+00
 -1       100 8.67000E+01 0.00000E+00 0.00000E+00
 -1       101 8.97000E+01 0.00000E+00 0.00000E+00
 -1       102 9.27000E+01 0.00000E+00 0.00000E+00
 -1       103 9.57000E+01 0.00000E+00 0.00000E+00
 -1       104 9.88500E+01 0.00000E+00 0.00000E+00
 -1       105 1.01850E+02 0.00000E+00 0.00000E+00
 -1       106 1.04850E+02 0.00000E+00 0.00000E+00
 -1       107 1.07850E+02 0.00000E+00 0.00000E+00
 -1       108 1.10850E+02 0.00000E+00 0.00000E+00
 -1       109 1.13850E+02 0.00000E+00 0.00000E+00
 -1       110 1.16850E+02 0.00000E+00 0.00000E+00
 -1       111 1.19850E+02 0.00000E+00 0.00000E+00
 -1       112 1.22850E+02 0.00000E+00 0.00000E+00
 -1       113 1.26000E+02 0.00000E+00 0.00000E+00
 -1       114 1.29000E+02 0.00000E+00 0.00000E+00
 -1       115 1.32000E+02 0.00000E+00 0.00000E+00
 -1       116 1.35000E+02 0.00000E+00 0.00000E+00
 -1       117 1.38000E+02 0.00000E+00 0.00000E+00
 -1       118 1.41000E+02 0.00000E+00 0.00000E+00
 -1       119 1.44000E+02 0.00000E+00 0.00000E+00
 -1       120 1.47000E+02 0.00000E+00 0.00000E+00
 -1       121 1.50000E+02 2.95000E+00 0.00000E+00
 -1       122 1.50000E+02 5.90000E+00 0.00000E+00
 -1       123 1.50000E+02 8.85000E+00 0.00000E+00
 -1       124 1.50000E+02 1.18000E+01 0.00000E+00
 -1       125 1.50000E+02 1.47500E+01 0.00000E+00
 -1       126 1.50000E+02 1.76500E+01 0.00000E+00
 -1       127 1.50000E+02 2.06000E+01 0.00000E+00
 -1       128 1.50000E+02 2.35500E+01 0.00000E+00
 -1       129 1.50000E+02 2.65000E+01 0.00000E+00
 -1       130 1.50000E+02 2.94500E+01 0.00000E+00
 -1       131 1.50000E+02 3.24000E+01 0.00000E+00
 -1       132 1.50000E+02 3.53000E+01 0.00000E+00
 -1       133 1.50000E+02 3.82500E+01 0.00000E+00
 -1       134 1.50000E+02 4.12000E+01 0.00000E+00
 -1       135 1.50000E+02 4.41500E+01 0.00000E+00
 -1       136 1.50000E+02 4.71000E+01 0.00000E+00
 -1       137 4.97909E+01 1.40550E+01 0.00000E+00
 -1       138 4.92726E+01 1.25716E+01 0.00000E+00
 -1       139 4.84070E+01 1.12045E+01 0.00000E+00
 -1       140 4.72927E+01 1.01056E+01 0.00000E+00
 -1       141 4.60810E+01 9.33928E+00 0.00000E+00
 -1       142 4.47176E+01 8.83050E+00 0.00000E+00
 -1       143 4.30061E+01 8.60773E+00 0.00000E+00
 -1       144 4.14828E+01 8.76637E+00 0.00000E+00
 -1       145 4.00862E+01 9.22706E+00 0.00000E+00
 -1       146 3.87201E+01 1.00417E+01 0.00000E+00
 -1       147 3.76475E+01 1.10555E+01 0.00000E+00
 -1       148 3.67957E+01 1.23005E+01 0.00000E+00
 -1       149 3.62422E+01 1.36581E+01 0.00000E+00
 -1       150 3.59845E+01 1.50890E+01 0.00000E+00
 -1       151 3.60427E+01 1.66462E+01 0.00000E+00
 -1       152 3.64107E+01 1.80648E+01 0.00000E+00
 -1       153 3.71652E+01 1.95268E+01 0.00000E+00
 -1       154 3.81249E+01 2.06644E+01 0.00000E+00
 -1       155 3.93379E+01 2.15945E+01 0.00000E+00
 -1       156 4.06611E+01 2.22175E+01 0.00000E+00
 -1       157 4.20885E+01 2.25525E+01 0.00000E+00
 -1       158 4.50641E+01 2.22855E+01 0.00000E+00
 -1       159 4.63919E+01 2.17116E+01 0.00000E+00
 -1       160 4.75586E+01 2.08898E+01 0.00000E+00
 -1       161 4.85981E+01 1.97634E+01 0.00000E+00
 -1       162 4.93537E+01 1.84689E+01 0.00000E+00
 -1       163 4.98092E+01 1.70773E+01 0.00000E+00
 -1       164 2.59800E+00 4.55750E+01 0.00000E+00
 -1       165 2.59800E+00 4.26250E+01 0.00000E+00
 -1       166 2.59800E+00 3.96750E+01 0.00000E+00
 -1       167 2.59800E+00 3.67250E+01 0.00000E+00
 -1       168 2.59800E+00 3.38250E+01 0.00000E+00
 -1       169 2.59800E+00 3.08750E+01 0.00000E+00
 -1       170 2.59800E+00 2.79250E+01 0.00000E+00
 -1       171 2.59800E+00 2.49750E+01 0.00000E+00
 -1       172 2.59800E+00 2.20250E+01 0.00000E+00
 -1       173 2.59800E+00 1.90750E+01 0.00000E+00
 -1       174 2.59800E+00 1.61750E+01 0.00000E+00
 -1       175 2.59800E+00 1.32250E+01 0.00000E+00
 -1       176 2.59800E+00 1.02750E+01 0.00000E+00
 -1       177 2.59800E+00 7.32500E+00 0.00000E+00
 -1       178 2.59800E+00 4.37500E+00 0.00000E+00
 -1       179 2.87400E+00 2.18750E+00 0.00000E+00
 -1       180 4.65000E+00 4.74020E+01 0.00000E+00
 -1       181 7.65000E+00 4.74020E+01 0.00000E+00
 -1       182 1.06500E+01 4.74020E+01 0.00000E+00
 -1       183 1.36500E+01 4.74020E+01 0.00000E+00
 -1       184 1.66500E+01 4.74020E+01 0.00000E+00
 -1       185 1.96500E+01 4.74020E+01 0.00000E+00
 -1       186 2.26500E+01 4.74020E+01 0.00000E+00
 -1       187 2.56500E+01 4.74020E+01 0.00000E+00
 -1       188 2.86500E+01 4.74020E+01 0.00000E+00
 -1       189 3.16500E+01 4.74020E+01 0.00000E+00
 -1       190 3.46500E+01 4.74020E+01 0.00000E+00
 -1       191 3.76500E+01 4.74020E+01 0.00000E+00
 -1       192 4.06500E+01 4.74020E+01 0.00000E+00
 -1       193 4.36500E+01 4.74020E+01 0.00000E+00
 -1       194 4.66500E+01 4.74020E+01 0.00000E+00
 -1       195 4.96500E+01 4.74020E+01 0.00000E+00
 -1       196 5.26500E+01 4.74020E+01 0.00000E+00
 -1       197 5.56500E+01 4.74020E+01 0.00000E+00
 -1       198 5.86500E+01 4.74020E+01 0.00000E+00
 -1       199 6.16500E+01 4.74020E+01 0.00000E+00
 -1       200 6.46500E+01 4.74020E+01 0.00000E+00
 -1       201 6.76500E+01 4.74020E+01 0.00000E+00
 -1       202 7.06500E+01 4.74020E+01 0.00000E+00
 -1       203 7.36500E+01 4.74020E+01 0.00000E+00
 -1       204 7.66500E+01 4.74020E+01 0.00000E+00
 -1       205 7.96500E+01 4.74020E+01 0.00000E+00
 -1       206 8.26500E+01 4.74020E+01 0.00000E+00
 -1       207 8.56500E+01 4.74020E+01 0.00000E+00
 -1       208 8.86500E+01 4.74020E+01 0.00000E+00
 -1       209 9.16500E+01 4.74020E+01 0.00000E+00
 -1       210 9.46500E+01 4.74020E+01 0.00000E+00
 -1       211 9.76500E+01 4.74020E+01 0.00000E+00
 -1       212 1.00650E+02 4.74020E+01 0.00000E+00
 -1       213 1.03650E+02 4.74020E+01 0.00000E+00
 -1       214 1.06650E+02 4.74020E+01 0.00000E+00
 -1       215 1.09650E+02 4.74020E+01 0.00000E+00
 -1       216 1.12650E+02 4.74020E+01 0.00000E+00
 -1       217 1.15650E+02 4.74020E+01 0.00000E+00
 -1       218 1.18650E+02 4.74020E+01 0.00000E+00
 -1       219 1.21650E+02 4.74020E+01 0.00000E+00
 -1       220 1.24650E+02 4.74020E+01 0.00000E+00
 -1       221 1.27650E+02 4.74020E+01 0.00000E+00
 -1       222 1.30650E+02 4.74020E+01 0.00000E+00
 -1       223 1.33650E+02 4.74020E+01 0.00000E+00
 -1       224 1.36650E+02 4.74020E+01 0.00000E+00
 -1       225 1.39650E+02 4.74020E+01 0.00000E+00
 -1       226 1.42650E+02 4.74020E+01 0.00000E+00
 -1       227 1.45650E+02 4.74020E+01 0.00000E+00
 -1       228 5.87400E+00 2.18750E+00 0.00000E+00
 -1       229 8.87400E+00 2.18750E+00 0.00000E+00
 -1       230 1.18740E+01 2.18750E+00 0.00000E+00
 -1       231 1.48740E+01 2.18750E+00 0.00000E+00
 -1       232 1.78740E+01 2.18750E+00 0.00000E+00
 -1       233 2.08740E+01 2.18750E+00 0.00000E+00
 -1       234 2.38740E+01 2.18750E+00 0.00000E+00
 -1       235 2.70240E+01 2.18750E+00 0.00000E+00
 -1       236 3.00240E+01 2.18750E+00 0.00000E+00
 -1       237 3.30240E+01 2.18750E+00 0.00000E+00
 -1       238 3.60240E+01 2.18750E+00 0.00000E+00
 -1       239 3.90240E+01 2.18750E+00 0.00000E+00
 -1       240 4.15740E+01 2.18750E+00 0.00000E+00
 -1       241 4.45740E+01 2.18750E+00 0.00000E+00
 -1       242 4.74240E+01 2.18750E+00 0.00000E+00
 -1       243 5.02740E+01 2.18750E+00 0.00000E+00
 -1       244 5.32740E+01 2.18750E+00 0.00000E+00
 -1       245 5.62740E+01 2.18750E+00 0.00000E+00
 -1       246 5.92740E+01 2.18750E+00 0.00000E+00
 -1       247 6.22740E+01 2.18750E+00 0.00000E+00
 -1       248 6.52740E+01 2.18750E+00 0.00000E+00
 -1       249 6.82740E+01 2.18750E+00 0.00000E+00
 -1       250 7.14240E+01 2.18750E+00 0.00000E+00
 -1       251 7.44240E+01 2.18750E+00 0.00000E+00
 -1       252 7.74240E+01 2.18750E+00 0.00000E+00
 -1       253 8.04240E+01 2.18750E+00 0.00000E+00
 -1       254 8.34240E+01 2.18750E+00 0.00000E+00
 -1       255 8.64240E+01 2.18750E+00 0.00000E+00
 -1       256 8.94240E+01 2.18750E+00 0.00000E+00
 -1       257 9.24240E+01 2.18750E+00 0.00000E+00
 -1       258 9.54240E+01 2.18750E+00 0.00000E+00
 -1       259 9.85740E+01 2.18750E+00 0.00000E+00
 -1       260 1.01574E+02 2.18750E+00 0.00000E+00
 -1       261 1.04574E+02 2.18750E+00 0.00000E+00
 -1       262 1.07574E+02 2.18750E+00 0.00000E+00
 -1       263 1.10574E+02 2.18750E+00 0.00000E+00
 -1       264 1.13574E+02 2.18750E+00 0.00000E+00
 -1       265 1.16574E+02 2.18750E+00 0.00000E+00
 -1       266 1.19574E+02 2.18750E+00 0.00000E+00
 -1       267 1.22574E+02 2.18750E+00 0.00000E+00
 -1       268 1.25724E+02 2.18750E+00 0.00000E+00
 -1       269 1.28724E+02 2.18750E+00 0.00000E+00
 -1       270 1.31724E+02 2.18750E+00 0.00000E+00
 -1       271 1.34724E+02 2.18750E+00 0.00000E+00
 -1       272 1.37724E+02 2.18750E+00 0.00000E+00
 -1       273 1.40724E+02 2.18750E+00 0.00000E+00
 -1       274 1.43724E+02 2.18750E+00 0.00000E+00
 -1       275 1.46724E+02 2.18750E+00 0.00000E+00
 -1       276 1.47402E+02 4.42500E+00 0.00000E+00
 -1       277 1.47402E+02 7.37500E+00 0.00000E+00
 -1       278 1.47402E+02 1.03250E+01 0.00000E+00
 -1       279 1.47402E+02 1.32750E+01 0.00000E+00
 -1       280 1.47402E+02 1.61750E+01 0.00000E+00
 -1       281 1.47402E+02 1.91250E+01 0.00000E+00
 -1       282 1.47402E+02 2.20750E+01 0.00000E+00
 -1       283 1.47402E+02 2.50250E+01 0.00000E+00
 -1       284 1.47402E+02 2.79750E+01 0.00000E+00
 -1       285 1.47402E+02 3.09250E+01 0.00000E+00
 -1       286 1.47402E+02 3.38250E+01 0.00000E+00
 -1       287 1.47402E+02 3.67750E+01 0.00000E+00
 -1       288 1.47402E+02 3.97250E+01 0.00000E+00
 -1       289 1.47402E+02 4.26750E+01 0.00000E+00
 -1       290 1.46526E+02 4.50385E+01 0.00000E+00
 -1       291 5.12494E+01 1.46773E+01 0.00000E+00
 -1       292 5.09926E+01 1.28028E+01 0.00000E+00
 -1       293 5.00765E+01 1.11050E+01 0.00000E+00
 -1       294 4.87601E+01 9.73219E+00 0.00000E+00
 -1       295 4.73349E+01 8.69771E+00 0.00000E+00
 -1       296 4.58525E+01 7.87050E+00 0.00000E+00
 -1       297 4.40399E+01 7.35069E+00 0.00000E+00
 -1       298 4.20841E+01 7.14783E+00 0.00000E+00
 -1       299 4.04047E+01 7.84534E+00 0.00000E+00
 -1       300 3.86106E+01 8.30523E+00 0.00000E+00
 -1       301 3.73510E+01 9.66749E+00 0.00000E+00
 -1       302 3.61518E+01 1.09461E+01 0.00000E+00
 -1       303 3.53963E+01 1.25216E+01 0.00000E+00
 -1       304 3.49201E+01 1.41587E+01 0.00000E+00
 -1       305 3.46346E+01 1.59192E+01 0.00000E+00
 -1       306 3.50531E+01 1.76599E+01 0.00000E+00
 -1       307 3.54128E+01 1.95055E+01 0.00000E+00
 -1       308 3.67183E+01 2.08773E+01 0.00000E+00
 -1       309 3.78917E+01 2.22246E+01 0.00000E+00
 -1       310 3.94473E+01 2.30787E+01 0.00000E+00
 -1       311 4.10978E+01 2.35653E+01 0.00000E+00
 -1       312 4.28403E+01 2.38602E+01 0.00000E+00
 -1       313 4.45885E+01 2.36189E+01 0.00000E+00
 -1       314 4.62090E+01 2.31114E+01 0.00000E+00
 -1       315 4.76734E+01 2.22919E+01 0.00000E+00
 -1       316 4.90924E+01 2.12625E+01 0.00000E+00
 -1       317 5.00953E+01 1.97696E+01 0.00000E+00
 -1       318 5.07337E+01 1.81502E+01 0.00000E+00
 -1       319 5.11762E+01 1.64793E+01 0.00000E+00
 -1       320 5.19600E+00 4.11500E+01 0.00000E+00
 -1       321 5.19600E+00 4.41000E+01 0.00000E+00
 -1       322 5.19600E+00 3.52750E+01 0.00000E+00
 -1       323 5.19600E+00 3.23250E+01 0.00000E+00
 -1       324 5.19600E+00 2.93750E+01 0.00000E+00
 -1       325 5.19600E+00 2.64250E+01 0.00000E+00
 -1       326 5.19600E+00 2.34750E+01 0.00000E+00
 -1       327 5.19600E+00 2.05250E+01 0.00000E+00
 -1       328 5.19600E+00 1.76250E+01 0.00000E+00
 -1       329 5.19600E+00 1.46750E+01 0.00000E+00
 -1       330 5.19600E+00 1.17250E+01 0.00000E+00
 -1       331 5.19600E+00 8.77500E+00 0.00000E+00
 -1       332 5.19600E+00 5.82500E+00 0.00000E+00
 -1       333 5.53500E+00 4.00625E+00 0.00000E+00
 -1       334 8.53500E+00 4.00625E+00 0.00000E+00
 -1       335 9.15000E+00 4.48040E+01 0.00000E+00
 -1       336 1.21500E+01 4.48040E+01 0.00000E+00
 -1       337 1.51500E+01 4.48040E+01 0.00000E+00
 -1       338 1.81500E+01 4.48040E+01 0.00000E+00
 -1       339 2.11500E+01 4.48040E+01 0.00000E+00
 -1       340 2.41500E+01 4.48040E+01 0.00000E+00
 -1       341 2.71500E+01 4.48040E+01 0.00000E+00
 -1       342 3.01500E+01 4.48040E+01 0.00000E+00
 -1       343 3.31500E+01 4.48040E+01 0.00000E+00
 -1       344 3.61500E+01 4.48040E+01 0.00000E+00
 -1       345 3.91500E+01 4.48040E+01 0.00000E+00
 -1       346 4.21500E+01 4.48040E+01 0.00000E+00
 -1       347 4.51500E+01 4.48040E+01 0.00000E+00
 -1       348 4.81500E+01 4.48040E+01 0.00000E+00
 -1       349 5.11500E+01 4.48040E+01 0.00000E+00
 -1       350 5.41500E+01 4.48040E+01 0.00000E+00
 -1       351 5.71500E+01 4.48040E+01 0.00000E+00
 -1       352 6.01500E+01 4.48040E+01 0.00000E+00
 -1       353 6.31500E+01 4.48040E+01 0.00000E+00
 -1       354 6.61500E+01 4.48040E+01 0.00000E+00
 -1       355 6.91500E+01 4.48040E+01 0.00000E+00
 -1       356 7.21500E+01 4.48040E+01 0.00000E+00
 -1       357 7.51500E+01 4.48040E+01 0.00000E+00
 -1       358 7.81500E+01 4.48040E+01 0.00000E+00
 -1       359 8.11500E+01 4.48040E+01 0.00000E+00
 -1       360 8.41500E+01 4.48040E+01 0.00000E+00
 -1       361 8.71500E+01 4.48040E+01 0.00000E+00
 -1       362 9.01500E+01 4.48040E+01 0.00000E+00
 -1       363 9.31500E+01 4.48040E+01 0.00000E+00
 -1       364 9.61500E+01 4.48040E+01 0.00000E+00
 -1       365 9.91500E+01 4.48040E+01 0.00000E+00
 -1       366 1.02150E+02 4.48040E+01 0.00000E+00
 -1       367 1.05150E+02 4.48040E+01 0.00000E+00
 -1       368 1.08150E+02 4.48040E+01 0.00000E+00
 -1       369 1.11150E+02 4.48040E+01 0.00000E+00
 -1       370 1.14150E+02 4.48040E+01 0.00000E+00
 -1       371 1.17150E+02 4.48040E+01 0.00000E+00
 -1       372 1.20150E+02 4.48040E+01 0.00000E+00
 -1       373 1.23150E+02 4.48040E+01 0.00000E+00
 -1       374 1.26150E+02 4.48040E+01 0.00000E+00
 -1       375 1.29150E+02 4.48040E+01 0.00000E+00
 -1       376 1.32150E+02 4.48040E+01 0.00000E+00
 -1       377 1.35150E+02 4.48040E+01 0.00000E+00
 -1       378 1.38150E+02 4.48040E+01 0.00000E+00
 -1       379 1.41150E+02 4.48040E+01 0.00000E+00
 -1       380 1.43838E+02 4.49212E+01 0.00000E+00
 -1       381 1.15350E+01 4.00625E+00 0.00000E+00
 -1       382 1.45350E+01 4.00625E+00 0.00000E+00
 -1       383 1.75350E+01 4.00625E+00 0.00000E+00
 -1       384 2.05350E+01 4.00625E+00 0.00000E+00
 -1       385 2.35350E+01 4.00625E+00 0.00000E+00
 -1       386 2.66850E+01 4.00625E+00 0.00000E+00
 -1       387 2.96850E+01 4.00625E+00 0.00000E+00
 -1       388 3.26850E+01 4.00625E+00 0.00000E+00
 -1       389 3.56850E+01 4.00625E+00 0.00000E+00
 -1       390 3.86850E+01 4.00625E+00 0.00000E+00
 -1       391 4.12350E+01 4.00625E+00 0.00000E+00
 -1       392 4.42350E+01 4.00625E+00 0.00000E+00
 -1       393 4.70850E+01 4.00625E+00 0.00000E+00
 -1       394 4.99350E+01 4.00625E+00 0.00000E+00
 -1       395 5.29350E+01 4.00625E+00 0.00000E+00
 -1       396 5.59350E+01 4.00625E+00 0.00000E+00
 -1       397 5.89350E+01 4.00625E+00 0.00000E+00
 -1       398 6.19350E+01 4.00625E+00 0.00000E+00
 -1       399 6.49350E+01 4.00625E+00 0.00000E+00
 -1       400 6.79350E+01 4.00625E+00 0.00000E+00
 -1       401 7.10850E+01 4.00625E+00 0.00000E+00
 -1       402 7.40850E+01 4.00625E+00 0.00000E+00
 -1       403 7.70850E+01 4.00625E+00 0.00000E+00
 -1       404 8.00850E+01 4.00625E+00 0.00000E+00
 -1       405 8.30850E+01 4.00625E+00 0.00000E+00
 -1       406 8.60850E+01 4.00625E+00 0.00000E+00
 -1       407 8.90850E+01 4.00625E+00 0.00000E+00
 -1       408 9.20850E+01 4.00625E+00 0.00000E+00
 -1       409 9.50850E+01 4.00625E+00 0.00000E+00
 -1       410 9.82350E+01 4.00625E+00 0.00000E+00
 -1       411 1.01235E+02 4.00625E+00 0.00000E+00
 -1       412 1.04235E+02 4.00625E+00 0.00000E+00
 -1       413 1.07235E+02 4.00625E+00 0.00000E+00
 -1       414 1.10235E+02 4.00625E+00 0.00000E+00
 -1       415 1.13235E+02 4.00625E+00 0.00000E+00
 -1       416 1.16235E+02 4.00625E+00 0.00000E+00
 -1       417 1.19235E+02 4.00625E+00 0.00000E+00
 -1       418 1.22235E+02 4.00625E+00 0.00000E+00
 -1       419 1.25385E+02 4.00625E+00 0.00000E+00
 -1       420 1.28385E+02 4.00625E+00 0.00000E+00
 -1       421 1.31385E+02 4.00625E+00 0.00000E+00
 -1       422 1.34385E+02 4.00625E+00 0.00000E+00
 -1       423 1.37385E+02 4.00625E+00 0.00000E+00
 -1       424 1.40385E+02 4.00625E+00 0.00000E+00
 -1       425 1.43385E+02 4.00625E+00 0.00000E+00
 -1       426 1.45393E+02 4.21562E+00 0.00000E+00
 -1       427 1.44804E+02 1.18000E+01 0.00000E+00
 -1       428 1.44804E+02 8.85000E+00 0.00000E+00
 -1       429 1.45099E+02 6.53281E+00 0.00000E+00
 -1       430 1.44804E+02 1.47000E+01 0.00000E+00
 -1       431 1.44804E+02 1.76500E+01 0.00000E+00
 -1       432 1.44804E+02 2.06000E+01 0.00000E+00
 -1       433 1.44804E+02 2.35500E+01 0.00000E+00
 -1       434 1.44804E+02 2.65000E+01 0.00000E+00
 -1       435 1.44804E+02 2.94500E+01 0.00000E+00
 -1       436 1.44804E+02 3.23500E+01 0.00000E+00
 -1       437 1.44804E+02 3.53000E+01 0.00000E+00
 -1       438 1.44804E+02 3.82500E+01 0.00000E+00
 -1       439 1.44804E+02 4.12000E+01 0.00000E+00
 -1       440 5.18227E+01 1.12588E+01 0.00000E+00
 -1       441 5.25916E+01 1.56343E+01 0.00000E+00
 -1       442 5.26542E+01 1.35301E+01 0.00000E+00
 -1       443 5.03538E+01 9.52147E+00 0.00000E+00
 -1       444 4.90057E+01 7.89474E+00 0.00000E+00
 -1       445 5.19600E+00 3.82125E+01 0.00000E+00
 -1       446 4.54190E+01 5.96195E+00 0.00000E+00
 -1       447 4.32303E+01 5.62664E+00 0.00000E+00
 -1       448 4.06509E+01 6.06741E+00 0.00000E+00
 -1       449 3.88567E+01 6.52730E+00 0.00000E+00
 -1       450 3.68445E+01 7.93576E+00 0.00000E+00
 -1       451 3.56453E+01 9.21436E+00 0.00000E+00
 -1       452 3.44542E+01 1.11009E+01 0.00000E+00
 -1       453 3.36722E+01 1.29079E+01 0.00000E+00
 -1       454 3.33867E+01 1.46684E+01 0.00000E+00
 -1       455 3.35021E+01 1.71122E+01 0.00000E+00
 -1       456 3.38617E+01 1.89578E+01 0.00000E+00
 -1       457 3.51266E+01 2.10850E+01 0.00000E+00
 -1       458 3.62644E+01 2.24573E+01 0.00000E+00
 -1       459 3.79247E+01 2.40081E+01 0.00000E+00
 -1       460 3.98586E+01 2.47260E+01 0.00000E+00
 -1       461 4.16011E+01 2.50209E+01 0.00000E+00
 -1       462 4.38916E+01 2.50236E+01 0.00000E+00
 -1       463 4.58613E+01 2.48420E+01 0.00000E+00
 -1       464 4.76561E+01 2.39789E+01 0.00000E+00
 -1       465 4.90751E+01 2.29496E+01 0.00000E+00
 -1       466 5.08785E+01 2.13790E+01 0.00000E+00
 -1       467 5.18542E+01 1.95275E+01 0.00000E+00
 -1       468 5.22079E+01 1.76465E+01 0.00000E+00
 -1       469 4.75233E+01 7.06753E+00 0.00000E+00
 -1       470 3.35756E+01 2.05373E+01 0.00000E+00
 -1       471 3.22542E+01 1.58614E+01 0.00000E+00
 -1       472 1.00350E+01 6.60425E+00 0.00000E+00
 -1       473 7.79400E+00 3.08500E+01 0.00000E+00
 -1       474 7.79400E+00 3.38000E+01 0.00000E+00
 -1       475 7.79400E+00 2.49500E+01 0.00000E+00
 -1       476 7.79400E+00 2.20000E+01 0.00000E+00
 -1       477 7.79400E+00 1.91000E+01 0.00000E+00
 -1       478 7.79400E+00 1.61500E+01 0.00000E+00
 -1       479 7.79400E+00 1.32000E+01 0.00000E+00
 -1       480 7.79400E+00 1.02500E+01 0.00000E+00
 -1       481 5.10004E+01 7.61372E+00 0.00000E+00
 -1       482 1.30350E+01 6.60425E+00 0.00000E+00
 -1       483 1.06500E+01 4.22060E+01 0.00000E+00
 -1       484 1.36500E+01 4.22060E+01 0.00000E+00
 -1       485 1.66500E+01 4.22060E+01 0.00000E+00
 -1       486 1.96500E+01 4.22060E+01 0.00000E+00
 -1       487 2.26500E+01 4.22060E+01 0.00000E+00
 -1       488 2.56500E+01 4.22060E+01 0.00000E+00
 -1       489 2.86500E+01 4.22060E+01 0.00000E+00
 -1       490 3.16500E+01 4.22060E+01 0.00000E+00
 -1       491 3.46500E+01 4.22060E+01 0.00000E+00
 -1       492 3.76500E+01 4.22060E+01 0.00000E+00
 -1       493 4.06500E+01 4.22060E+01 0.00000E+00
 -1       494 4.36500E+01 4.22060E+01 0.00000E+00
 -1       495 4.66500E+01 4.22060E+01 0.00000E+00
 -1       496 4.96500E+01 4.22060E+01 0.00000E+00
 -1       497 5.26500E+01 4.22060E+01 0.00000E+00
 -1       498 5.56500E+01 4.22060E+01 0.00000E+00
 -1       499 5.86500E+01 4.22060E+01 0.00000E+00
 -1       500 6.16500E+01 4.22060E+01 0.00000E+00
 -1       501 6.46500E+01 4.22060E+01 0.00000E+00
 -1       502 6.76500E+01 4.22060E+01 0.00000E+00
 -1       503 7.06500E+01 4.22060E+01 0.00000E+00
 -1       504 7.36500E+01 4.22060E+01 0.00000E+00
 -1       505 7.66500E+01 4.22060E+01 0.00000E+00
 -1       506 7.96500E+01 4.22060E+01 0.00000E+00
 -1       507 8.26500E+01 4.22060E+01 0.00000E+00
 -1       508 8.56500E+01 4.22060E+01 0.00000E+00
 -1       509 8.86500E+01 4.22060E+01 0.00000E+00
 -1       510 9.16500E+01 4.22060E+01 0.00000E+00
 -1       511 9.46500E+01 4.22060E+01 0.00000E+00
 -1       512 9.76500E+01 4.22060E+01 0.00000E+00
 -1       513 1.00650E+02 4.22060E+01 0.00000E+00
 -1       514 1.03650E+02 4.22060E+01 0.00000E+00
 -1       515 1.06650E+02 4.22060E+01 0.00000E+00
 -1       516 1.09650E+02 4.22060E+01 0.00000E+00
 -1       517 1.12650E+02 4.22060E+01 0.00000E+00
 -1       518 1.15650E+02 4.22060E+01 0.00000E+00
 -1       519 1.18650E+02 4.22060E+01 0.00000E+00
 -1       520 1.21650E+02 4.22060E+01 0.00000E+00
 -1       521 1.24650E+02 4.22060E+01 0.00000E+00
 -1       522 1.27650E+02 4.22060E+01 0.00000E+00
 -1       523 1.30650E+02 4.22060E+01 0.00000E+00
 -1       524 1.33650E+02 4.22060E+01 0.00000E+00
 -1       525 1.36650E+02 4.22060E+01 0.00000E+00
 -1       526 1.39650E+02 4.22060E+01 0.00000E+00
 -1       527 1.90350E+01 6.60425E+00 0.00000E+00
 -1       528 2.20350E+01 6.60425E+00 0.00000E+00
 -1       529 2.51850E+01 6.60425E+00 0.00000E+00
 -1       530 2.81850E+01 6.60425E+00 0.00000E+00
 -1       531 3.11850E+01 6.60425E+00 0.00000E+00
 -1       532 4.85100E+01 6.05650E+00 0.00000E+00
 -1       533 5.40004E+01 7.61372E+00 0.00000E+00
 -1       534 5.70004E+01 7.61372E+00 0.00000E+00
 -1       535 6.00004E+01 7.61372E+00 0.00000E+00
 -1       536 6.30004E+01 7.61372E+00 0.00000E+00
 -1       537 6.60004E+01 7.61372E+00 0.00000E+00
 -1       538 6.91504E+01 7.61372E+00 0.00000E+00
 -1       539 7.21504E+01 7.61372E+00 0.00000E+00
 -1       540 7.51504E+01 7.61372E+00 0.00000E+00
 -1       541 7.81504E+01 7.61372E+00 0.00000E+00
 -1       542 8.11504E+01 7.61372E+00 0.00000E+00
 -1       543 8.41504E+01 7.61372E+00 0.00000E+00
 -1       544 8.71504E+01 7.61372E+00 0.00000E+00
 -1       545 9.01504E+01 7.61372E+00 0.00000E+00
 -1       546 9.31504E+01 7.61372E+00 0.00000E+00
 -1       547 9.63004E+01 7.61372E+00 0.00000E+00
 -1       548 9.93004E+01 7.61372E+00 0.00000E+00
 -1       549 1.02300E+02 7.61372E+00 0.00000E+00
 -1       550 1.05300E+02 7.61372E+00 0.00000E+00
 -1       551 1.08300E+02 7.61372E+00 0.00000E+00
 -1       552 1.11300E+02 7.61372E+00 0.00000E+00
 -1       553 1.14300E+02 7.61372E+00 0.00000E+00
 -1       554 1.17300E+02 7.61372E+00 0.00000E+00
 -1       555 1.20300E+02 7.61372E+00 0.00000E+00
 -1       556 1.23450E+02 7.61372E+00 0.00000E+00
 -1       557 1.26450E+02 7.61372E+00 0.00000E+00
 -1       558 1.29450E+02 7.61372E+00 0.00000E+00
 -1       559 1.32450E+02 7.61372E+00 0.00000E+00
 -1       560 1.35450E+02 7.61372E+00 0.00000E+00
 -1       561 1.38450E+02 7.61372E+00 0.00000E+00
 -1       562 1.41450E+02 7.61372E+00 0.00000E+00
 -1       563 1.42206E+02 1.61750E+01 0.00000E+00
 -1       564 1.42206E+02 1.91250E+01 0.00000E+00
 -1       565 1.42206E+02 1.03250E+01 0.00000E+00
 -1       566 1.42206E+02 1.32500E+01 0.00000E+00
 -1       567 1.42206E+02 2.20750E+01 0.00000E+00
 -1       568 1.42206E+02 2.50250E+01 0.00000E+00
 -1       569 1.42206E+02 2.79750E+01 0.00000E+00
 -1       570 1.42206E+02 3.08750E+01 0.00000E+00
 -1       571 1.42206E+02 3.38250E+01 0.00000E+00
 -1       572 1.42206E+02 3.67750E+01 0.00000E+00
 -1       573 1.42206E+02 3.97250E+01 0.00000E+00
 -1       574 5.43373E+01 1.46332E+01 0.00000E+00
 -1       575 1.60350E+01 6.60425E+00 0.00000E+00
 -1       576 5.40845E+01 1.69617E+01 0.00000E+00
 -1       577 5.38491E+01 1.18048E+01 0.00000E+00
 -1       578 7.92300E+00 4.16780E+01 0.00000E+00
 -1       579 5.37309E+01 1.88426E+01 0.00000E+00
 -1       580 4.74656E+01 2.58807E+01 0.00000E+00
 -1       581 3.82948E+01 2.59750E+01 0.00000E+00
 -1       582 3.35995E+01 9.24196E+00 0.00000E+00
 -1       583 7.79400E+00 2.79000E+01 0.00000E+00