    1C
    1UUSER                                                              
    1UDATE              27.october.2022                                 
    1UTIME              00:02:44                                        
    1UHOST                                                              
    1UPGM               CalculiX                                        
    1UVERSION           Version 2.17                             
    1UCOMPILETIME       Thu Jul 23 21:43:50 CEST 2020                    
    1UDIR                                                               
    1UDBN                                                               
    1UMAT    1SOLIDMATERIAL                                             
    2C                          4284                                     1
 -1         1 7.00346E+01 2.86832E+01 0.00000E+00
 -1         2 8.16166E+01 2.33911E+01 0.00000E+00
 -1         3 1.50000E+02 0.00000E+00 0.00000E+00
 -1         4 1.50000E+02 5.00000E+01 0.00000E+00
 -1         5 0.00000E+00 0.00000E+00 0.00000E+00
 -1         6 0.00000E+00 5.00000E+01 0.00000E+00
 -1         7 0.00000E+00 4.70500E+01 0.00000E+00
 -1         8 0.00000E+00 4.41000E+01 0.00000E+00
 -1         9 0.00000E+00 4.11500E+01 0.00000E+00
 -1        10 0.00000E+00 3.82000E+01 0.00000E+00
 -1        11 0.00000E+00 3.52500E+01 0.00000E+00
 -1        12 0.00000E+00 3.23500E+01 0.00000E+00
 -1        13 0.00000E+00 2.94000E+01 0.00000E+00
 -1        14 0.00000E+00 2.64500E+01 0.00000E+00
 -1        15 0.00000E+00 2.35000E+01 0.00000E+00
 -1        16 0.00000E+00 2.05500E+01 0.00000E+00
 -1        17 0.00000E+00 1.76000E+01 0.00000E+00
 -1        18 0.00000E+00 1.47000E+01 0.00000E+00
 -1        19 0.00000E+00 1.17500E+01 0.00000E+00
 -1        20 0.00000E+00 8.80000E+00 0.00000E+00
 -1        21 0.00000E+00 5.85000E+00 0.00000E+00
 -1        22 0.00000E+00 2.90000E+00 0.00000E+00
 -1        23 3.15000E+00 5.00000E+01 0.00000E+00
 -1        24 6.15000E+00 5.00000E+01 0.00000E+00
 -1        25 9.15000E+00 5.00000E+01 0.00000E+00
 -1        26 1.21500E+01 5.00000E+01 0.00000E+00
 -1        27 1.51500E+01 5.00000E+01 0.00000E+00
 -1        28 1.81500E+01 5.00000E+01 0.00000E+00
 -1        29 2.11500E+01 5.00000E+01 0.00000E+00
 -1        30 2.41500E+01 5.00000E+01 0.00000E+00
 -1        31 2.71500E+01 5.00000E+01 0.00000E+00
 -1        32 3.01500E+01 5.00000E+01 0.00000E+00
 -1        33 3.31500E+01 5.00000E+01 0.00000E+00
 -1        34 3.61500E+01 5.00000E+01 0.00000E+00
 -1        35 3.91500E+01 5.00000E+01 0.00000E+00
 -1        36 4.21500E+01 5.00000E+01 0.00000E+00
 -1        37 4.51500E+01 5.00000E+01 0.00000E+00
 -1        38 4.81500E+01 5.00000E+01 0.00000E+00
 -1        39 5.11500E+01 5.00000E+01 0.00000E+00
 -1        40 5.41500E+01 5.00000E+01 0.00000E+00
 -1        41 5.71500E+01 5.00000E+01 0.00000E+00
 -1        42 6.01500E+01 5.00000E+01 0.00000E+00
 -1        43 6.31500E+01 5.00000E+01 0.00000E+00
 -1        44 6.61500E+01 5.00000E+01 0.00000E+00
 -1        45 6.91500E+01 5.00000E+01 0.00000E+00
 -1        46 7.21500E+01 5.00000E+01 0.00000E+00
 -1        47 7.51500E+01 5.00000E+01 0.00000E+00
 -1        48 7.81500E+01 5.00000E+01 0.00000E+00
 -1        49 8.11500E+01 5.00000E+01 0.00000E+00
 -1        50 8.41500E+01 5.00000E+01 0.00000E+00
 -1        51 8.71500E+01 5.00000E+01 0.00000E+00
 -1        52 9.01500E+01 5.00000E+01 0.00000E+00
 -1        53 9.31500E+01 5.00000E+01 0.00000E+00
 -1        54 9.61500E+01 5.00000E+01 0.00000E+00
 -1        55 9.91500E+01 5.00000E+01 0.00000E+00
 -1        56 1.02150E+02 5.00000E+01 0.00000E+00
 -1        57 1.05150E+02 5.00000E+01 0.00000E+00
 -1        58 1.08150E+02 5.00000E+01 0.00000E+00
 -1        59 1.11150E+02 5.00000E+01 0.00000E+00
 -1        60 1.14150E+02 5.00000E+01 0.00000E+00
 -1        61 1.17150E+02 5.00000E+01 0.00000E+00
 -1        62 1.20150E+02 5.00000E+01 0.00000E+00
 -1        63 1.23150E+02 5.00000E+01 0.00000E+00
 -1        64 1.26150E+02 5.00000E+01 0.00000E+00
 -1        65 1.29150E+02 5.00000E+01 0.00000E+00
 -1        66 1.32150E+02 5.00000E+01 0.00000E+00
 -1        67 1.35150E+02 5.00000E+01 0.00000E+00
 -1        68 1.38150E+02 5.00000E+01 0.00000E+00
 -1        69 1.41150E+02 5.00000E+01 0.00000E+00
 -1        70 1.44150E+02 5.00000E+01 0.00000E+00
 -1        71 1.47150E+02 5.00000E+01 0.00000E+00
 -1        72 3.15000E+00 0.00000E+00 0.00000E+00
 -1        73 6.15000E+00 0.00000E+00 0.00000E+00
 -1        74 9.15000E+00 0.00000E+00 0.00000E+00
 -1        75 1.21500E+01 0.00000E+00 0.00000E+00
 -1        76 1.51500E+01 0.00000E+00 0.00000E+00
 -1        77 1.81500E+01 0.00000E+00 0.00000E+00
 -1        78 2.11500E+01 0.00000E+00 0.00000E+00
 -1        79 2.41500E+01 0.00000E+00 0.00000E+00
 -1        80 2.71500E+01 0.00000E+00 0.00000E+00
 -1        81 3.01500E+01 0.00000E+00 0.00000E+00
 -1        82 3.31500E+01 0.00000E+00 0.00000E+00
 -1        83 3.61500E+01 0.00000E+00 0.00000E+00
 -1        84 3.91500E+01 0.00000E+00 0.00000E+00
 -1        85 4.21500E+01 0.00000E+00 0.00000E+00
 -1        86 4.51500E+01 0.00000E+00 0.00000E+00
 -1        87 4.81500E+01 0.00000E+00 0.00000E+00
 -1        88 5.11500E+01 0.00000E+00 0.00000E+00
 -1        89 5.41500E+01 0.00000E+00 0.00000E+00
 -1        90 5.71500E+01 0.00000E+00 0.00000E+00
 -1        91 6.01500E+01 0.00000E+00 0.00000E+00
 -1        92 6.31500E+01 0.00000E+00 0.00000E+00
 -1        93 6.61500E+01 0.00000E+00 0.00000E+00
 -1        94 6.91500E+01 0.00000E+00 0.00000E+00
 -1        95 7.21500E+01 0.00000E+00 0.00000E+00
 -1        96 7.51500E+01 0.00000E+00 0.00000E+00
 -1        97 7.81500E+01 0.00000E+00 0.00000E+00
 -1        98 8.11500E+01 0.00000E+00 0.00000E+00
 -1        99 8.41500E+01 0.00000E+00 0.00000E+00
 -1       100 8.71500E+01 0.00000E+00 0.00000E+00
 -1       101 9.01500E+01 0.00000E+00 0.00000E+00
 -1       102 9.31500E+01 0.00000E+00 0.00000E+00
 -1       103 9.61500E+01 0.00000E+00 0.00000E+00
 -1       104 9.91500E+01 0.00000E+00 0.00000E+00
 -1       105 1.02150E+02 0.00000E+00 0.00000E+00
 -1       106 1.05150E+02 0.00000E+00 0.00000E+00
 -1       107 1.08150E+02 0.00000E+00 0.00000E+00
 -1       108 1.11150E+02 0.00000E+00 0.00000E+00
 -1       109 1.14150E+02 0.00000E+00 0.00000E+00
 -1       110 1.17150E+02 0.00000E+00 0.00000E+00
 -1       111 1.20150E+02 0.00000E+00 0.00000E+00
 -1       112 1.23150E+02 0.00000E+00 0.00000E+00
 -1       113 1.26150E+02 0.00000E+00 0.00000E+00
 -1       114 1.29150E+02 0.00000E+00 0.00000E+00
 -1       115 1.32150E+02 0.00000E+00 0.00000E+00
 -1       116 1.35150E+02 0.00000E+00 0.00000E+00
 -1       117 1.38150E+02 0.00000E+00 0.00000E+00
 -1       118 1.41150E+02 0.00000E+00 0.00000E+00
 -1       119 1.44150E+02 0.00000E+00 0.00000E+00
 -1       120 1.47150E+02 0.00000E+00 0.00000E+00
 -1       121 1.50000E+02 2.95000E+00 0.00000E+00
 -1       122 1.50000E+02 5.90000E+00 0.00000E+00
 -1       123 1.50000E+02 8.85000E+00 0.00000E+00
 -1       124 1.50000E+02 1.18000E+01 0.00000E+00
 -1       125 1.50000E+02 1.47500E+01 0.00000E+00
 -1       126 1.50000E+02 1.76500E+01 0.00000E+00
 -1       127 1.50000E+02 2.06000E+01 0.00000E+00
 -1       128 1.50000E+02 2.35500E+01 0.00000E+00
 -1       129 1.50000E+02 2.65000E+01 0.00000E+00
 -1       130 1.50000E+02 2.94500E+01 0.00000E+00
 -1       131 1.50000E+02 3.24000E+01 0.00000E+00
 -1       132 1.50000E+02 3.53000E+01 0.00000E+00
 -1       133 1.50000E+02 3.82500E+01 0.00000E+00
 -1       134 1.50000E+02 4.12000E+01 0.00000E+00
 -1       135 1.50000E+02 4.41500E+01 0.00000E+00
 -1       136 1.50000E+02 4.71000E+01 0.00000E+00
 -1       137 8.14654E+01 2.19442E+01 0.00000E+00
 -1       138 8.10055E+01 2.05309E+01 0.00000E+00
 -1       139 8.02504E+01 1.92366E+01 0.00000E+00
 -1       140 7.93156E+01 1.82027E+01 0.00000E+00
 -1       141 7.81884E+01 1.73710E+01 0.00000E+00
 -1       142 7.68535E+01 1.67582E+01 0.00000E+00
 -1       143 7.53347E+01 1.64281E+01 0.00000E+00
 -1       144 7.39182E+01 1.64261E+01 0.00000E+00
 -1       145 7.23355E+01 1.67732E+01 0.00000E+00
 -1       146 7.09023E+01 1.74579E+01 0.00000E+00
 -1       147 6.97415E+01 1.83678E+01 0.00000E+00
 -1       148 6.88058E+01 1.94879E+01 0.00000E+00
 -1       149 6.81233E+01 2.07763E+01 0.00000E+00
 -1       150 6.77190E+01 2.21982E+01 0.00000E+00
 -1       151 6.76196E+01 2.35981E+01 0.00000E+00
 -1       152 6.78082E+01 2.50180E+01 0.00000E+00
 -1       153 6.82856E+01 2.63777E+01 0.00000E+00
 -1       154 6.90380E+01 2.76195E+01 0.00000E+00
 -1       155 7.12161E+01 2.95097E+01 0.00000E+00
 -1       156 7.26085E+01 3.00969E+01 0.00000E+00
 -1       157 7.39755E+01 3.03617E+01 0.00000E+00
 -1       158 7.55022E+01 3.03349E+01 0.00000E+00
 -1       159 7.68499E+01 3.00253E+01 0.00000E+00
 -1       160 7.81664E+01 2.94243E+01 0.00000E+00
 -1       161 7.93305E+01 2.85659E+01 0.00000E+00
 -1       162 8.03236E+01 2.74445E+01 0.00000E+00
 -1       163 8.10382E+01 2.61773E+01 0.00000E+00
 -1       164 8.14666E+01 2.48324E+01 0.00000E+00
 -1       165 2.59800E+00 4.55750E+01 0.00000E+00
 -1       166 2.59800E+00 4.26250E+01 0.00000E+00
 -1       167 2.59800E+00 3.96750E+01 0.00000E+00
 -1       168 2.59800E+00 3.67250E+01 0.00000E+00
 -1       169 2.59800E+00 3.38250E+01 0.00000E+00
 -1       170 2.59800E+00 3.08750E+01 0.00000E+00
 -1       171 2.59800E+00 2.79250E+01 0.00000E+00
 -1       172 2.59800E+00 2.49750E+01 0.00000E+00
 -1       173 2.59800E+00 2.20250E+01 0.00000E+00
 -1       174 2.59800E+00 1.90750E+01 0.00000E+00
 -1       175 2.59800E+00 1.61750E+01 0.00000E+00
 -1       176 2.59800E+00 1.32250E+01 0.00000E+00
 -1       177 2.59800E+00 1.02750E+01 0.00000E+00
 -1       178 2.59800E+00 7.32500E+00 0.00000E+00
 -1       179 2.59800E+00 4.37500E+00 0.00000E+00
 -1       180 2.87400E+00 2.18750E+00 0.00000E+00
 -1       181 4.65000E+00 4.74020E+01 0.00000E+00
 -1       182 7.65000E+00 4.74020E+01 0.00000E+00
 -1       183 1.06500E+01 4.74020E+01 0.00000E+00
 -1       184 1.36500E+01 4.74020E+01 0.00000E+00
 -1       185 1.66500E+01 4.74020E+01 0.00000E+00
 -1       186 1.96500E+01 4.74020E+01 0.00000E+00
 -1       187 2.26500E+01 4.74020E+01 0.00000E+00
 -1       188 2.56500E+01 4.74020E+01 0.00000E+00
 -1       189 2.86500E+01 4.74020E+01 0.00000E+00
 -1       190 3.16500E+01 4.74020E+01 0.00000E+00
 -1       191 3.46500E+01 4.74020E+01 0.00000E+00
 -1       192 3.76500E+01 4.74020E+01 0.00000E+00
 -1       193 4.06500E+01 4.74020E+01 0.00000E+00
 -1       194 4.36500E+01 4.74020E+01 0.00000E+00
 -1       195 4.66500E+01 4.74020E+01 0.00000E+00
 -1       196 4.96500E+01 4.74020E+01 0.00000E+00
 -1       197 5.26500E+01 4.74020E+01 0.00000E+00
 -1       198 5.56500E+01 4.74020E+01 0.00000E+00
 -1       199 5.86500E+01 4.74020E+01 0.00000E+00
 -1       200 6.16500E+01 4.74020E+01 0.00000E+00
 -1       201 6.46500E+01 4.74020E+01 0.00000E+00
 -1       202 6.76500E+01 4.74020E+01 0.00000E+00
 -1       203 7.06500E+01 4.74020E+01 0.00000E+00
 -1       204 7.36500E+01 4.74020E+01 0.00000E+00
 -1       205 7.66500E+01 4.74020E+01 0.00000E+00
 -1       206 7.96500E+01 4.74020E+01 0.00000E+00
 -1       207 8.26500E+01 4.74020E+01 0.00000E+00
 -1       208 8.56500E+01 4.74020E+01 0.00000E+00
 -1       209 8.86500E+01 4.74020E+01 0.00000E+00
 -1       210 9.16500E+01 4.74020E+01 0.00000E+00
 -1       211 9.46500E+01 4.74020E+01 0.00000E+00
 -1       212 9.76500E+01 4.74020E+01 0.00000E+00
 -1       213 1.00650E+02 4.74020E+01 0.00000E+00
 -1       214 1.03650E+02 4.74020E+01 0.00000E+00
 -1       215 1.06650E+02 4.74020E+01 0.00000E+00
 -1       216 1.09650E+02 4.74020E+01 0.00000E+00
 -1       217 1.12650E+02 4.74020E+01 0.00000E+00
 -1       218 1.15650E+02 4.74020E+01 0.00000E+00
 -1       219 1.18650E+02 4.74020E+01 0.00000E+00
 -1       220 1.21650E+02 4.74020E+01 0.00000E+00
 -1       221 1.24650E+02 4.74020E+01 0.00000E+00
 -1       222 1.27650E+02 4.74020E+01 0.00000E+00
 -1       223 1.30650E+02 4.74020E+01 0.00000E+00
 -1       224 1.33650E+02 4.74020E+01 0.00000E+00
 -1       225 1.36650E+02 4.74020E+01 0.00000E+00
 -1       226 1.39650E+02 4.74020E+01 0.00000E+00
 -1       227 1.42650E+02 4.74020E+01 0.00000E+00
 -1       228 1.45650E+02 4.74020E+01 0.00000E+00
 -1       229 5.87400E+00 2.18750E+00 0.00000E+00
 -1       230 8.87400E+00 2.18750E+00 0.00000E+00
 -1       231 1.18740E+01 2.18750E+00 0.00000E+00
 -1       232 1.48740E+01 2.18750E+00 0.00000E+00
 -1       233 1.78740E+01 2.18750E+00 0.00000E+00
 -1       234 2.08740E+01 2.18750E+00 0.00000E+00
 -1       235 2.38740E+01 2.18750E+00 0.00000E+00
 -1       236 2.68740E+01 2.18750E+00 0.00000E+00
 -1       237 2.98740E+01 2.18750E+00 0.00000E+00
 -1       238 3.28740E+01 2.18750E+00 0.00000E+00
 -1       239 3.58740E+01 2.18750E+00 0.00000E+00
 -1       240 3.88740E+01 2.18750E+00 0.00000E+00
 -1       241 4.18740E+01 2.18750E+00 0.00000E+00
 -1       242 4.48740E+01 2.18750E+00 0.00000E+00
 -1       243 4.78740E+01 2.18750E+00 0.00000E+00
 -1       244 5.08740E+01 2.18750E+00 0.00000E+00
 -1       245 5.38740E+01 2.18750E+00 0.00000E+00
 -1       246 5.68740E+01 2.18750E+00 0.00000E+00
 -1       247 5.98740E+01 2.18750E+00 0.00000E+00
 -1       248 6.28740E+01 2.18750E+00 0.00000E+00
 -1       249 6.58740E+01 2.18750E+00 0.00000E+00
 -1       250 6.88740E+01 2.18750E+00 0.00000E+00
 -1       251 7.18740E+01 2.18750E+00 0.00000E+00
 -1       252 7.48740E+01 2.18750E+00 0.00000E+00
 -1       253 7.78740E+01 2.18750E+00 0.00000E+00
 -1       254 8.08740E+01 2.18750E+00 0.00000E+00
 -1       255 8.38740E+01 2.18750E+00 0.00000E+00
 -1       256 8.68740E+01 2.18750E+00 0.00000E+00
 -1       257 8.98740E+01 2.18750E+00 0.00000E+00
 -1       258 9.28740E+01 2.18750E+00 0.00000E+00
 -1       259 9.58740E+01 2.18750E+00 0.00000E+00
 -1       260 9.88740E+01 2.18750E+00 0.00000E+00
 -1       261 1.01874E+02 2.18750E+00 0.00000E+00
 -1       262 1.04874E+02 2.18750E+00 0.00000E+00
 -1       263 1.07874E+02 2.18750E+00 0.00000E+00
 -1       264 1.10874E+02 2.18750E+00 0.00000E+00
 -1       265 1.13874E+02 2.18750E+00 0.00000E+00
 -1       266 1.16874E+02 2.18750E+00 0.00000E+00
 -1       267 1.19874E+02 2.18750E+00 0.00000E+00
 -1       268 1.22874E+02 2.18750E+00 0.00000E+00
 -1       269 1.25874E+02 2.18750E+00 0.00000E+00
 -1       270 1.28874E+02 2.18750E+00 0.00000E+00
 -1       271 1.31874E+02 2.18750E+00 0.00000E+00
 -1       272 1.34874E+02 2.18750E+00 0.00000E+00
 -1       273 1.37874E+02 2.18750E+00 0.00000E+00
 -1       274 1.40874E+02 2.18750E+00 0.00000E+00
 -1       275 1.43874E+02 2.18750E+00 0.00000E+00
 -1       276 1.46874E+02 2.18750E+00 0.00000E+00
 -1       277 1.47402E+02 4.42500E+00 0.00000E+00
 -1       278 1.47402E+02 7.37500E+00 0.00000E+00
 -1       279 1.47402E+02 1.03250E+01 0.00000E+00
 -1       280 1.47402E+02 1.32750E+01 0.00000E+00
 -1       281 1.47402E+02 1.61750E+01 0.00000E+00
 -1       282 1.47402E+02 1.91250E+01 0.00000E+00
 -1       283 1.47402E+02 2.20750E+01 0.00000E+00
 -1       284 1.47402E+02 2.50250E+01 0.00000E+00
 -1       285 1.47402E+02 2.79750E+01 0.00000E+00
 -1       286 1.47402E+02 3.09250E+01 0.00000E+00
 -1       287 1.47402E+02 3.38250E+01 0.00000E+00
 -1       288 1.47402E+02 3.67750E+01 0.00000E+00
 -1       289 1.47402E+02 3.97250E+01 0.00000E+00
 -1       290 1.47402E+02 4.26750E+01 0.00000E+00
 -1       291 1.46526E+02 4.50385E+01 0.00000E+00
 -1       292 8.28301E+01 2.25330E+01 0.00000E+00
 -1       293 8.23884E+01 2.08624E+01 0.00000E+00
 -1       294 8.17475E+01 1.92306E+01 0.00000E+00
 -1       295 8.06823E+01 1.79065E+01 0.00000E+00
 -1       296 7.94718E+01 1.68113E+01 0.00000E+00
 -1       297 7.80268E+01 1.59627E+01 0.00000E+00
 -1       298 7.63694E+01 1.53265E+01 0.00000E+00
 -1       299 7.46283E+01 1.51309E+01 0.00000E+00
 -1       300 7.27953E+01 1.50880E+01 0.00000E+00
 -1       301 7.09519E+01 1.57191E+01 0.00000E+00
 -1       302 6.95222E+01 1.68927E+01 0.00000E+00
 -1       303 6.82789E+01 1.80969E+01 0.00000E+00
 -1       304 6.73191E+01 1.95253E+01 0.00000E+00
 -1       305 6.66743E+01 2.11328E+01 0.00000E+00
 -1       306 6.64599E+01 2.28124E+01 0.00000E+00
 -1       307 6.64290E+01 2.44787E+01 0.00000E+00
 -1       308 6.69030E+01 2.60995E+01 0.00000E+00
 -1       309 6.76249E+01 2.76268E+01 0.00000E+00
 -1       310 6.85293E+01 2.90949E+01 0.00000E+00
 -1       311 6.99304E+01 3.00899E+01 0.00000E+00
 -1       312 7.13761E+01 3.10748E+01 0.00000E+00
 -1       313 7.30614E+01 3.14196E+01 0.00000E+00
 -1       314 7.47631E+01 3.17281E+01 0.00000E+00
 -1       315 7.64475E+01 3.13617E+01 0.00000E+00
 -1       316 7.80813E+01 3.09801E+01 0.00000E+00
 -1       317 7.94680E+01 2.99709E+01 0.00000E+00
 -1       318 8.08602E+01 2.89201E+01 0.00000E+00
 -1       319 8.18099E+01 2.74476E+01 0.00000E+00
 -1       320 8.24076E+01 2.58728E+01 0.00000E+00
 -1       321 8.27475E+01 2.42373E+01 0.00000E+00
 -1       322 5.19600E+00 4.11500E+01 0.00000E+00
 -1       323 5.19600E+00 4.41000E+01 0.00000E+00
 -1       324 5.19600E+00 3.52750E+01 0.00000E+00
 -1       325 5.19600E+00 3.23250E+01 0.00000E+00
 -1       326 5.19600E+00 2.93750E+01 0.00000E+00
 -1       327 5.19600E+00 2.64250E+01 0.00000E+00
 -1       328 5.19600E+00 2.34750E+01 0.00000E+00
 -1       329 5.19600E+00 2.05250E+01 0.00000E+00
 -1       330 5.19600E+00 1.76250E+01 0.00000E+00
 -1       331 5.19600E+00 1.46750E+01 0.00000E+00
 -1       332 5.19600E+00 1.17250E+01 0.00000E+00
 -1       333 5.19600E+00 8.77500E+00 0.00000E+00
 -1       334 5.19600E+00 5.82500E+00 0.00000E+00
 -1       335 5.53500E+00 4.00625E+00 0.00000E+00
 -1       336 8.53500E+00 4.00625E+00 0.00000E+00
 -1       337 9.15000E+00 4.48040E+01 0.00000E+00
 -1       338 1.21500E+01 4.48040E+01 0.00000E+00
 -1       339 1.51500E+01 4.48040E+01 0.00000E+00
 -1       340 1.81500E+01 4.48040E+01 0.00000E+00
 -1       341 2.11500E+01 4.48040E+01 0.00000E+00
 -1       342 2.41500E+01 4.48040E+01 0.00000E+00
 -1       343 2.71500E+01 4.48040E+01 0.00000E+00
 -1       344 3.01500E+01 4.48040E+01 0.00000E+00
 -1       345 3.31500E+01 4.48040E+01 0.00000E+00
 -1       346 3.61500E+01 4.48040E+01 0.00000E+00
 -1       347 3.91500E+01 4.48040E+01 0.00000E+00
 -1       348 4.21500E+01 4.48040E+01 0.00000E+00
 -1       349 4.51500E+01 4.48040E+01 0.00000E+00
 -1       350 4.81500E+01 4.48040E+01 0.00000E+00
 -1       351 5.11500E+01 4.48040E+01 0.00000E+00
 -1       352 5.41500E+01 4.48040E+01 0.00000E+00
 -1       353 5.71500E+01 4.48040E+01 0.00000E+00
 -1       354 6.01500E+01 4.48040E+01 0.00000E+00
 -1       355 6.31500E+01 4.48040E+01 0.00000E+00
 -1       356 6.61500E+01 4.48040E+01 0.00000E+00
 -1       357 6.91500E+01 4.48040E+01 0.00000E+00
 -1       358 7.21500E+01 4.48040E+01 0.00000E+00
 -1       359 7.51500E+01 4.48040E+01 0.00000E+00
 -1       360 7.81500E+01 4.48040E+01 0.00000E+00
 -1       361 8.11500E+01 4.48040E+01 0.00000E+00
 -1       362 8.41500E+01 4.48040E+01 0.00000E+00
 -1       363 8.71500E+01 4.48040E+01 0.00000E+00
 -1       364 9.01500E+01 4.48040E+01 0.00000E+00
 -1       365 9.31500E+01 4.48040E+01 0.00000E+00
 -1       366 9.61500E+01 4.48040E+01 0.00000E+00
 -1       367 9.91500E+01 4.48040E+01 0.00000E+00
 -1       368 1.02150E+02 4.48040E+01 0.00000E+00
 -1       369 1.05150E+02 4.48040E+01 0.00000E+00
 -1       370 1.08150E+02 4.48040E+01 0.00000E+00
 -1       371 1.11150E+02 4.48040E+01 0.00000E+00
 -1       372 1.14150E+02 4.48040E+01 0.00000E+00
 -1       373 1.17150E+02 4.48040E+01 0.00000E+00
 -1       374 1.20150E+02 4.48040E+01 0.00000E+00
 -1       375 1.23150E+02 4.48040E+01 0.00000E+00
 -1       376 1.26150E+02 4.48040E+01 0.00000E+00
 -1       377 1.29150E+02 4.48040E+01 0.00000E+00
 -1       378 1.32150E+02 4.48040E+01 0.00000E+00
 -1       379 1.35150E+02 4.48040E+01 0.00000E+00
 -1       380 1.38150E+02 4.48040E+01 0.00000E+00
 -1       381 1.41150E+02 4.48040E+01 0.00000E+00
 -1       382 1.43838E+02 4.49212E+01 0.00000E+00
 -1       383 1.15350E+01 4.00625E+00 0.00000E+00
 -1       384 1.45350E+01 4.00625E+00 0.00000E+00
 -1       385 1.75350E+01 4.00625E+00 0.00000E+00
 -1       386 2.05350E+01 4.00625E+00 0.00000E+00
 -1       387 2.35350E+01 4.00625E+00 0.00000E+00
 -1       388 2.65350E+01 4.00625E+00 0.00000E+00
 -1       389 2.95350E+01 4.00625E+00 0.00000E+00
 -1       390 3.25350E+01 4.00625E+00 0.00000E+00
 -1       391 3.55350E+01 4.00625E+00 0.00000E+00
 -1       392 3.85350E+01 4.00625E+00 0.00000E+00
 -1       393 4.15350E+01 4.00625E+00 0.00000E+00
 -1       394 4.45350E+01 4.00625E+00 0.00000E+00
 -1       395 4.75350E+01 4.00625E+00 0.00000E+00
 -1       396 5.05350E+01 4.00625E+00 0.00000E+00
 -1       397 5.35350E+01 4.00625E+00 0.00000E+00
 -1       398 5.65350E+01 4.00625E+00 0.00000E+00
 -1       399 5.95350E+01 4.00625E+00 0.00000E+00
 -1       400 6.25350E+01 4.00625E+00 0.00000E+00
 -1       401 6.55350E+01 4.00625E+00 0.00000E+00
 -1       402 6.85350E+01 4.00625E+00 0.00000E+00
 -1       403 7.15350E+01 4.00625E+00 0.00000E+00
 -1       404 7.45350E+01 4.00625E+00 0.00000E+00
 -1       405 7.75350E+01 4.00625E+00 0.00000E+00
 -1       406 8.05350E+01 4.00625E+00 0.00000E+00
 -1       407 8.35350E+01 4.00625E+00 0.00000E+00
 -1       408 8.65350E+01 4.00625E+00 0.00000E+00
 -1       409 8.95350E+01 4.00625E+00 0.00000E+00
 -1       410 9.25350E+01 4.00625E+00 0.00000E+00
 -1       411 9.55350E+01 4.00625E+00 0.00000E+00
 -1       412 9.85350E+01 4.00625E+00 0.00000E+00
 -1       413 1.01535E+02 4.00625E+00 0.00000E+00
 -1       414 1.04535E+02 4.00625E+00 0.00000E+00
 -1       415 1.07535E+02 4.00625E+00 0.00000E+00
 -1       416 1.10535E+02 4.00625E+00 0.00000E+00
 -1       417 1.13535E+02 4.00625E+00 0.00000E+00
 -1       418 1.16535E+02 4.00625E+00 0.00000E+00
 -1       419 1.19535E+02 4.00625E+00 0.00000E+00
 -1       420 1.22535E+02 4.00625E+00 0.00000E+00
 -1       421 1.25535E+02 4.00625E+00 0.00000E+00
 -1       422 1.28535E+02 4.00625E+00 0.00000E+00
 -1       423 1.31535E+02 4.00625E+00 0.00000E+00
 -1       424 1.34535E+02 4.00625E+00 0.00000E+00
 -1       425 1.37535E+02 4.00625E+00 0.00000E+00
 -1       426 1.40535E+02 4.00625E+00 0.00000E+00
 -1       427 1.43535E+02 4.00625E+00 0.00000E+00
 -1       428 1.45469E+02 4.21562E+00 0.00000E+00
 -1       429 1.44804E+02 1.18000E+01 0.00000E+00
 -1       430 1.44804E+02 8.85000E+00 0.00000E+00
 -1       431 1.45136E+02 6.53281E+00 0.00000E+00
 -1       432 1.44804E+02 1.47000E+01 0.00000E+00
 -1       433 1.44804E+02 1.76500E+01 0.00000E+00
 -1       434 1.44804E+02 2.06000E+01 0.00000E+00
 -1       435 1.44804E+02 2.35500E+01 0.00000E+00
 -1       436 1.44804E+02 2.65000E+01 0.00000E+00
 -1       437 1.44804E+02 2.94500E+01 0.00000E+00
 -1       438 1.44804E+02 3.23500E+01 0.00000E+00
 -1       439 1.44804E+02 3.53000E+01 0.00000E+00
 -1       440 1.44804E+02 3.82500E+01 0.00000E+00
 -1       441 1.44804E+02 4.12000E+01 0.00000E+00
 -1       442 8.35084E+01 1.94808E+01 0.00000E+00
 -1       443 8.40835E+01 2.34480E+01 0.00000E+00
 -1       444 8.38624E+01 2.13663E+01 0.00000E+00
 -1       445 8.22901E+01 1.77035E+01 0.00000E+00
 -1       446 8.11153E+01 1.62114E+01 0.00000E+00
 -1       447 5.19600E+00 3.82125E+01 0.00000E+00
 -1       448 7.77527E+01 1.41999E+01 0.00000E+00
 -1       449 7.56529E+01 1.38574E+01 0.00000E+00
 -1       450 7.37460E+01 1.36461E+01 0.00000E+00
 -1       451 7.13452E+01 1.38602E+01 0.00000E+00
 -1       452 6.90425E+01 1.48508E+01 0.00000E+00
 -1       453 6.77992E+01 1.60549E+01 0.00000E+00
 -1       454 6.64449E+01 1.79013E+01 0.00000E+00
 -1       455 6.57937E+01 1.98465E+01 0.00000E+00
 -1       456 6.49489E+01 2.17660E+01 0.00000E+00
 -1       457 6.49180E+01 2.34323E+01 0.00000E+00
 -1       458 6.50198E+01 2.57705E+01 0.00000E+00
 -1       459 6.60920E+01 2.74170E+01 0.00000E+00
 -1       460 6.66168E+01 2.92605E+01 0.00000E+00
 -1       461 6.84794E+01 3.06492E+01 0.00000E+00
 -1       462 6.98291E+01 3.17920E+01 0.00000E+00
 -1       463 7.19422E+01 3.25992E+01 0.00000E+00
 -1       464 7.36438E+01 3.29077E+01 0.00000E+00
 -1       465 7.59164E+01 3.29752E+01 0.00000E+00
 -1       466 7.75502E+01 3.25936E+01 0.00000E+00
 -1       467 7.95866E+01 3.15913E+01 0.00000E+00
 -1       468 8.09788E+01 3.05405E+01 0.00000E+00
 -1       469 8.24947E+01 2.89318E+01 0.00000E+00
 -1       470 8.36339E+01 2.72391E+01 0.00000E+00
 -1       471 8.39286E+01 2.53358E+01 0.00000E+00
 -1       472 7.94340E+01 1.52056E+01 0.00000E+00
 -1       473 1.00350E+01 6.60425E+00 0.00000E+00
 -1       474 7.79400E+00 3.08500E+01 0.00000E+00
 -1       475 7.79400E+00 3.38000E+01 0.00000E+00
 -1       476 7.79400E+00 2.49500E+01 0.00000E+00
 -1       477 7.79400E+00 2.20000E+01 0.00000E+00
 -1       478 7.79400E+00 1.91000E+01 0.00000E+00
 -1       479 7.79400E+00 1.61500E+01 0.00000E+00
 -1       480 7.79400E+00 1.32000E+01 0.00000E+00
 -1       481 7.79400E+00 1.02500E+01 0.00000E+00
 -1       482 1.30350E+01 6.60425E+00 0.00000E+00
 -1       483 1.06500E+01 4.22060E+01 0.00000E+00
 -1       484 7.92300E+00 4.16780E+01 0.00000E+00
 -1       485 8.30503E+01 1.58965E+01 0.00000E+00
 -1       486 1.36500E+01 4.22060E+01 0.00000E+00
 -1       487 1.66500E+01 4.22060E+01 0.00000E+00
 -1       488 1.96500E+01 4.22060E+01 0.00000E+00
 -1       489 2.26500E+01 4.22060E+01 0.00000E+00
 -1       490 2.56500E+01 4.22060E+01 0.00000E+00
 -1       491 2.86500E+01 4.22060E+01 0.00000E+00
 -1       492 3.16500E+01 4.22060E+01 0.00000E+00
 -1       493 3.46500E+01 4.22060E+01 0.00000E+00
 -1       494 3.76500E+01 4.22060E+01 0.00000E+00
 -1       495 4.06500E+01 4.22060E+01 0.00000E+00
 -1       496 4.36500E+01 4.22060E+01 0.00000E+00
 -1       497 4.66500E+01 4.22060E+01 0.00000E+00
 -1       498 4.96500E+01 4.22060E+01 0.00000E+00
 -1       499 5.26500E+01 4.22060E+01 0.00000E+00
 -1       500 5.56500E+01 4.22060E+01 0.00000E+00
 -1       501 5.86500E+01 4.22060E+01 0.00000E+00
 -1       502 6.16500E+01 4.22060E+01 0.00000E+00
 -1       503 6.46500E+01 4.22060E+01 0.00000E+00
 -1       504 6.76500E+01 4.22060E+01 0.00000E+00
 -1       505 7.06500E+01 4.22060E+01 0.00000E+00
 -1       506 7.36500E+01 4.22060E+01 0.00000E+00
 -1       507 7.66500E+01 4.22060E+01 0.00000E+00
 -1       508 7.96500E+01 4.22060E+01 0.00000E+00
 -1       509 8.26500E+01 4.22060E+01 0.00000E+00
 -1       510 8.56500E+01 4.22060E+01 0.00000E+00
 -1       511 8.86500E+01 4.22060E+01 0.00000E+00
 -1       512 9.16500E+01 4.22060E+01 0.00000E+00
 -1       513 9.46500E+01 4.22060E+01 0.00000E+00
 -1       514 9.76500E+01 4.22060E+01 0.00000E+00
 -1       515 1.00650E+02 4.22060E+01 0.00000E+00
 -1       516 1.03650E+02 4.22060E+01 0.00000E+00
 -1       517 1.06650E+02 4.22060E+01 0.00000E+00
 -1       518 1.09650E+02 4.22060E+01 0.00000E+00
 -1       519 1.12650E+02 4.22060E+01 0.00000E+00
 -1       520 1.15650E+02 4.22060E+01 0.00000E+00
 -1       521 1.18650E+02 4.22060E+01 0.00000E+00
 -1       522 1.21650E+02 4.22060E+01 0.00000E+00
 -1       523 1.24650E+02 4.22060E+01 0.00000E+00
 -1       524 1.27650E+02 4.22060E+01 0.00000E+00
 -1       525 1.30650E+02 4.22060E+01 0.00000E+00
 -1       526 1.33650E+02 4.22060E+01 0.00000E+00
 -1       527 1.36650E+02 4.22060E+01 0.00000E+00
 -1       528 1.39650E+02 4.22060E+01 0.00000E+00
 -1       529 1.90350E+01 6.60425E+00 0.00000E+00
 -1       530 2.20350E+01 6.60425E+00 0.00000E+00
 -1       531 2.50350E+01 6.60425E+00 0.00000E+00
 -1       532 2.80350E+01 6.60425E+00 0.00000E+00
 -1       533 3.10350E+01 6.60425E+00 0.00000E+00
 -1       534 3.40350E+01 6.60425E+00 0.00000E+00
 -1       535 3.70350E+01 6.60425E+00 0.00000E+00
 -1       536 4.00350E+01 6.60425E+00 0.00000E+00
 -1       537 4.30350E+01 6.60425E+00 0.00000E+00
 -1       538 4.60350E+01 6.60425E+00 0.00000E+00
 -1       539 4.90350E+01 6.60425E+00 0.00000E+00
 -1       540 5.20350E+01 6.60425E+00 0.00000E+00
 -1       541 5.50350E+01 6.60425E+00 0.00000E+00
 -1       542 5.80350E+01 6.60425E+00 0.00000E+00
 -1       543 6.10350E+01 6.60425E+00 0.00000E+00
 -1       544 6.40350E+01 6.60425E+00 0.00000E+00
 -1       545 6.70350E+01 6.60425E+00 0.00000E+00
 -1       546 7.00350E+01 6.60425E+00 0.00000E+00
 -1       547 7.30350E+01 6.60425E+00 0.00000E+00
 -1       548 7.60350E+01 6.60425E+00 0.00000E+00
 -1       549 7.90350E+01 6.60425E+00 0.00000E+00
 -1       550 8.20350E+01 6.60425E+00 0.00000E+00
 -1       551 8.50350E+01 6.60425E+00 0.00000E+00
 -1       552 8.80350E+01 6.60425E+00 0.00000E+00
 -1       553 9.10350E+01 6.60425E+00 0.00000E+00
 -1       554 9.40350E+01 6.60425E+00 0.00000E+00
 -1       555 9.70350E+01 6.60425E+00 0.00000E+00
 -1       556 1.00035E+02 6.60425E+00 0.00000E+00
 -1       557 1.03035E+02 6.60425E+00 0.00000E+00
 -1       558 1.06035E+02 6.60425E+00 0.00000E+00
 -1       559 1.09035E+02 6.60425E+00 0.00000E+00
 -1       560 1.12035E+02 6.60425E+00 0.00000E+00
 -1       561 1.15035E+02 6.60425E+00 0.00000E+00
 -1       562 1.18035E+02 6.60425E+00 0.00000E+00
 -1       563 1.21035E+02 6.60425E+00 0.00000E+00
 -1       564 1.24035E+02 6.60425E+00 0.00000E+00
 -1       565 1.27035E+02 6.60425E+00 0.00000E+00
 -1       566 1.30035E+02 6.60425E+00 0.00000E+00
 -1       567 1.33035E+02 6.60425E+00 0.00000E+00
 -1       568 1.36035E+02 6.60425E+00 0.00000E+00
 -1       569 1.39035E+02 6.60425E+00 0.00000E+00
 -1       570 1.42035E+02 6.60425E+00 0.00000E+00
 -1       571 1.42206E+02 1.61750E+01 0.00000E+00
 -1       572 1.42206E+02 1.91250E+01 0.00000E+00
 -1       573 1.42206E+02 1.03250E+01 0.00000E+00
 -1       574 1.42206E+02 1.32500E+01 0.00000E+00
 -1       575 1.42206E+02 2.20750E+01 0.00000E+00
 -1       576 1.42206E+02 2.50250E+01 0.00000E+00
 -1       577 1.42206E+02 2.79750E+01 0.00000E+00
 -1       578 1.42206E+02 3.08750E+01 0.00000E+00
 -1       579 1.42206E+02 3.38250E+01 0.00000E+00
 -1       580 1.42206E+02 3.67750E+01 0.00000E+00
 -1       581 1.42206E+02 3.97250E+01 0.00000E+00
 -1       582 8.54285E+01 2.22525E+01 0.00000E+00
 -1       583 8.42686E+01 1.76738E+01 0.00000E+00