    1C
    1UUSER                                                              
    1UDATE              27.october.2022                                 
    1UTIME              01:06:44                                        
    1UHOST                                                              
    1UPGM               CalculiX                                        
    1UVERSION           Version 2.17                             
    1UCOMPILETIME       Thu Jul 23 21:43:50 CEST 2020                    
    1UDIR                                                               
    1UDBN                                                               
    1UMAT    1SOLIDMATERIAL                                             
    2C                          4310                                     1
 -1         1 1.39088E+02 2.96987E+01 0.00000E+00
 -1         2 1.43276E+02 2.32885E+01 0.00000E+00
 -1         3 1.50000E+02 0.00000E+00 0.00000E+00
 -1         4 1.50000E+02 5.00000E+01 0.00000E+00
 -1         5 0.00000E+00 0.00000E+00 0.00000E+00
 -1         6 0.00000E+00 5.00000E+01 0.00000E+00
 -1         7 0.00000E+00 4.70500E+01 0.00000E+00
 -1         8 0.00000E+00 4.41000E+01 0.00000E+00
 -1         9 0.00000E+00 4.11500E+01 0.00000E+00
 -1        10 0.00000E+00 3.82000E+01 0.00000E+00
 -1        11 0.00000E+00 3.52500E+01 0.00000E+00
 -1        12 0.00000E+00 3.23500E+01 0.00000E+00
 -1        13 0.00000E+00 2.94000E+01 0.00000E+00
 -1        14 0.00000E+00 2.64500E+01 0.00000E+00
 -1        15 0.00000E+00 2.35000E+01 0.00000E+00
 -1        16 0.00000E+00 2.05500E+01 0.00000E+00
 -1        17 0.00000E+00 1.76000E+01 0.00000E+00
 -1        18 0.00000E+00 1.47000E+01 0.00000E+00
 -1        19 0.00000E+00 1.17500E+01 0.00000E+00
 -1        20 0.00000E+00 8.80000E+00 0.00000E+00
 -1        21 0.00000E+00 5.85000E+00 0.00000E+00
 -1        22 0.00000E+00 2.90000E+00 0.00000E+00
 -1        23 3.15000E+00 5.00000E+01 0.00000E+00
 -1        24 6.15000E+00 5.00000E+01 0.00000E+00
 -1        25 9.15000E+00 5.00000E+01 0.00000E+00
 -1        26 1.21500E+01 5.00000E+01 0.00000E+00
 -1        27 1.51500E+01 5.00000E+01 0.00000E+00
 -1        28 1.81500E+01 5.00000E+01 0.00000E+00
 -1        29 2.11500E+01 5.00000E+01 0.00000E+00
 -1        30 2.41500E+01 5.00000E+01 0.00000E+00
 -1        31 2.71500E+01 5.00000E+01 0.00000E+00
 -1        32 3.01500E+01 5.00000E+01 0.00000E+00
 -1        33 3.31500E+01 5.00000E+01 0.00000E+00
 -1        34 3.61500E+01 5.00000E+01 0.00000E+00
 -1        35 3.91500E+01 5.00000E+01 0.00000E+00
 -1        36 4.21500E+01 5.00000E+01 0.00000E+00
 -1        37 4.51500E+01 5.00000E+01 0.00000E+00
 -1        38 4.81500E+01 5.00000E+01 0.00000E+00
 -1        39 5.11500E+01 5.00000E+01 0.00000E+00
 -1        40 5.41500E+01 5.00000E+01 0.00000E+00
 -1        41 5.71500E+01 5.00000E+01 0.00000E+00
 -1        42 6.01500E+01 5.00000E+01 0.00000E+00
 -1        43 6.31500E+01 5.00000E+01 0.00000E+00
 -1        44 6.61500E+01 5.00000E+01 0.00000E+00
 -1        45 6.91500E+01 5.00000E+01 0.00000E+00
 -1        46 7.21500E+01 5.00000E+01 0.00000E+00
 -1        47 7.51500E+01 5.00000E+01 0.00000E+00
 -1        48 7.81500E+01 5.00000E+01 0.00000E+00
 -1        49 8.11500E+01 5.00000E+01 0.00000E+00
 -1        50 8.41500E+01 5.00000E+01 0.00000E+00
 -1        51 8.71500E+01 5.00000E+01 0.00000E+00
 -1        52 9.01500E+01 5.00000E+01 0.00000E+00
 -1        53 9.31500E+01 5.00000E+01 0.00000E+00
 -1        54 9.61500E+01 5.00000E+01 0.00000E+00
 -1        55 9.91500E+01 5.00000E+01 0.00000E+00
 -1        56 1.02150E+02 5.00000E+01 0.00000E+00
 -1        57 1.05150E+02 5.00000E+01 0.00000E+00
 -1        58 1.08150E+02 5.00000E+01 0.00000E+00
 -1        59 1.11150E+02 5.00000E+01 0.00000E+00
 -1        60 1.14150E+02 5.00000E+01 0.00000E+00
 -1        61 1.17150E+02 5.00000E+01 0.00000E+00
 -1        62 1.20150E+02 5.00000E+01 0.00000E+00
 -1        63 1.23150E+02 5.00000E+01 0.00000E+00
 -1        64 1.26150E+02 5.00000E+01 0.00000E+00
 -1        65 1.29150E+02 5.00000E+01 0.00000E+00
 -1        66 1.32150E+02 5.00000E+01 0.00000E+00
 -1        67 1.35150E+02 5.00000E+01 0.00000E+00
 -1        68 1.38150E+02 5.00000E+01 0.00000E+00
 -1        69 1.41150E+02 5.00000E+01 0.00000E+00
 -1        70 1.44150E+02 5.00000E+01 0.00000E+00
 -1        71 1.47150E+02 5.00000E+01 0.00000E+00
 -1        72 3.15000E+00 0.00000E+00 0.00000E+00
 -1        73 6.15000E+00 0.00000E+00 0.00000E+00
 -1        74 9.15000E+00 0.00000E+00 0.00000E+00
 -1        75 1.21500E+01 0.00000E+00 0.00000E+00
 -1        76 1.51500E+01 0.00000E+00 0.00000E+00
 -1        77 1.81500E+01 0.00000E+00 0.00000E+00
 -1        78 2.11500E+01 0.00000E+00 0.00000E+00
 -1        79 2.41500E+01 0.00000E+00 0.00000E+00
 -1        80 2.71500E+01 0.00000E+00 0.00000E+00
 -1        81 3.01500E+01 0.00000E+00 0.00000E+00
 -1        82 3.31500E+01 0.00000E+00 0.00000E+00
 -1        83 3.61500E+01 0.00000E+00 0.00000E+00
 -1        84 3.91500E+01 0.00000E+00 0.00000E+00
 -1        85 4.21500E+01 0.00000E+00 0.00000E+00
 -1        86 4.51500E+01 0.00000E+00 0.00000E+00
 -1        87 4.81500E+01 0.00000E+00 0.00000E+00
 -1        88 5.11500E+01 0.00000E+00 0.00000E+00
 -1        89 5.41500E+01 0.00000E+00 0.00000E+00
 -1        90 5.71500E+01 0.00000E+00 0.00000E+00
 -1        91 6.01500E+01 0.00000E+00 0.00000E+00
 -1        92 6.31500E+01 0.00000E+00 0.00000E+00
 -1        93 6.61500E+01 0.00000E+00 0.00000E+00
 -1        94 6.91500E+01 0.00000E+00 0.00000E+00
 -1        95 7.21500E+01 0.00000E+00 0.00000E+00
 -1        96 7.51500E+01 0.00000E+00 0.00000E+00
 -1        97 7.81500E+01 0.00000E+00 0.00000E+00
 -1        98 8.11500E+01 0.00000E+00 0.00000E+00
 -1        99 8.41500E+01 0.00000E+00 0.00000E+00
 -1       100 8.71500E+01 0.00000E+00 0.00000E+00
 -1       101 9.01500E+01 0.00000E+00 0.00000E+00
 -1       102 9.31500E+01 0.00000E+00 0.00000E+00
 -1       103 9.61500E+01 0.00000E+00 0.00000E+00
 -1       104 9.91500E+01 0.00000E+00 0.00000E+00
 -1       105 1.02150E+02 0.00000E+00 0.00000E+00
 -1       106 1.05150E+02 0.00000E+00 0.00000E+00
 -1       107 1.08150E+02 0.00000E+00 0.00000E+00
 -1       108 1.11150E+02 0.00000E+00 0.00000E+00
 -1       109 1.14150E+02 0.00000E+00 0.00000E+00
 -1       110 1.17150E+02 0.00000E+00 0.00000E+00
 -1       111 1.20150E+02 0.00000E+00 0.00000E+00
 -1       112 1.23150E+02 0.00000E+00 0.00000E+00
 -1       113 1.26150E+02 0.00000E+00 0.00000E+00
 -1       114 1.29150E+02 0.00000E+00 0.00000E+00
 -1       115 1.32150E+02 0.00000E+00 0.00000E+00
 -1       116 1.35150E+02 0.00000E+00 0.00000E+00
 -1       117 1.38150E+02 0.00000E+00 0.00000E+00
 -1       118 1.41150E+02 0.00000E+00 0.00000E+00
 -1       119 1.44150E+02 0.00000E+00 0.00000E+00
 -1       120 1.47150E+02 0.00000E+00 0.00000E+00
 -1       121 1.50000E+02 2.95000E+00 0.00000E+00
 -1       122 1.50000E+02 5.90000E+00 0.00000E+00
 -1       123 1.50000E+02 8.85000E+00 0.00000E+00
 -1       124 1.50000E+02 1.18000E+01 0.00000E+00
 -1       125 1.50000E+02 1.44500E+01 0.00000E+00
 -1       126 1.50000E+02 1.67500E+01 0.00000E+00
 -1       127 1.50000E+02 1.88000E+01 0.00000E+00
 -1       128 1.50000E+02 2.08000E+01 0.00000E+00
 -1       129 1.50000E+02 2.30500E+01 0.00000E+00
 -1       130 1.50000E+02 2.54500E+01 0.00000E+00
 -1       131 1.50000E+02 2.76500E+01 0.00000E+00
 -1       132 1.50000E+02 2.99500E+01 0.00000E+00
 -1       133 1.50000E+02 3.23500E+01 0.00000E+00
 -1       134 1.50000E+02 3.53000E+01 0.00000E+00
 -1       135 1.50000E+02 3.82500E+01 0.00000E+00
 -1       136 1.50000E+02 4.12000E+01 0.00000E+00
 -1       137 1.50000E+02 4.41500E+01 0.00000E+00
 -1       138 1.50000E+02 4.71000E+01 0.00000E+00
 -1       139 1.43109E+02 2.17689E+01 0.00000E+00
 -1       140 1.42587E+02 2.02596E+01 0.00000E+00
 -1       141 1.41832E+02 1.90305E+01 0.00000E+00
 -1       142 1.40799E+02 1.79458E+01 0.00000E+00
 -1       143 1.39524E+02 1.70874E+01 0.00000E+00
 -1       144 1.38218E+02 1.65633E+01 0.00000E+00
 -1       145 1.36807E+02 1.63086E+01 0.00000E+00
 -1       146 1.35352E+02 1.63497E+01 0.00000E+00
 -1       147 1.33933E+02 1.66924E+01 0.00000E+00
 -1       148 1.32617E+02 1.73209E+01 0.00000E+00
 -1       149 1.31253E+02 1.84136E+01 0.00000E+00
 -1       150 1.30371E+02 1.95298E+01 0.00000E+00
 -1       151 1.29725E+02 2.08226E+01 0.00000E+00
 -1       152 1.29361E+02 2.22011E+01 0.00000E+00
 -1       153 1.29296E+02 2.38161E+01 0.00000E+00
 -1       154 1.29553E+02 2.52374E+01 0.00000E+00
 -1       155 1.30116E+02 2.66132E+01 0.00000E+00
 -1       156 1.30919E+02 2.77934E+01 0.00000E+00
 -1       157 1.32077E+02 2.88891E+01 0.00000E+00
 -1       158 1.33358E+02 2.96514E+01 0.00000E+00
 -1       159 1.34752E+02 3.01204E+01 0.00000E+00
 -1       160 1.36234E+02 3.02883E+01 0.00000E+00
 -1       161 1.37678E+02 3.01467E+01 0.00000E+00
 -1       162 1.40244E+02 2.90552E+01 0.00000E+00
 -1       163 1.41343E+02 2.81180E+01 0.00000E+00
 -1       164 1.42153E+02 2.70916E+01 0.00000E+00
 -1       165 1.42783E+02 2.58696E+01 0.00000E+00
 -1       166 1.43148E+02 2.46239E+01 0.00000E+00
 -1       167 2.59800E+00 4.55750E+01 0.00000E+00
 -1       168 2.59800E+00 4.26250E+01 0.00000E+00
 -1       169 2.59800E+00 3.96750E+01 0.00000E+00
 -1       170 2.59800E+00 3.67250E+01 0.00000E+00
 -1       171 2.59800E+00 3.38250E+01 0.00000E+00
 -1       172 2.59800E+00 3.08750E+01 0.00000E+00
 -1       173 2.59800E+00 2.79250E+01 0.00000E+00
 -1       174 2.59800E+00 2.49750E+01 0.00000E+00
 -1       175 2.59800E+00 2.20250E+01 0.00000E+00
 -1       176 2.59800E+00 1.90750E+01 0.00000E+00
 -1       177 2.59800E+00 1.61750E+01 0.00000E+00
 -1       178 2.59800E+00 1.32250E+01 0.00000E+00
 -1       179 2.59800E+00 1.02750E+01 0.00000E+00
 -1       180 2.59800E+00 7.32500E+00 0.00000E+00
 -1       181 2.59800E+00 4.37500E+00 0.00000E+00
 -1       182 2.87400E+00 2.18750E+00 0.00000E+00
 -1       183 4.65000E+00 4.74020E+01 0.00000E+00
 -1       184 7.65000E+00 4.74020E+01 0.00000E+00
 -1       185 1.06500E+01 4.74020E+01 0.00000E+00
 -1       186 1.36500E+01 4.74020E+01 0.00000E+00
 -1       187 1.66500E+01 4.74020E+01 0.00000E+00
 -1       188 1.96500E+01 4.74020E+01 0.00000E+00
 -1       189 2.26500E+01 4.74020E+01 0.00000E+00
 -1       190 2.56500E+01 4.74020E+01 0.00000E+00
 -1       191 2.86500E+01 4.74020E+01 0.00000E+00
 -1       192 3.16500E+01 4.74020E+01 0.00000E+00
 -1       193 3.46500E+01 4.74020E+01 0.00000E+00
 -1       194 3.76500E+01 4.74020E+01 0.00000E+00
 -1       195 4.06500E+01 4.74020E+01 0.00000E+00
 -1       196 4.36500E+01 4.74020E+01 0.00000E+00
 -1       197 4.66500E+01 4.74020E+01 0.00000E+00
 -1       198 4.96500E+01 4.74020E+01 0.00000E+00
 -1       199 5.26500E+01 4.74020E+01 0.00000E+00
 -1       200 5.56500E+01 4.74020E+01 0.00000E+00
 -1       201 5.86500E+01 4.74020E+01 0.00000E+00
 -1       202 6.16500E+01 4.74020E+01 0.00000E+00
 -1       203 6.46500E+01 4.74020E+01 0.00000E+00
 -1       204 6.76500E+01 4.74020E+01 0.00000E+00
 -1       205 7.06500E+01 4.74020E+01 0.00000E+00
 -1       206 7.36500E+01 4.74020E+01 0.00000E+00
 -1       207 7.66500E+01 4.74020E+01 0.00000E+00
 -1       208 7.96500E+01 4.74020E+01 0.00000E+00
 -1       209 8.26500E+01 4.74020E+01 0.00000E+00
 -1       210 8.56500E+01 4.74020E+01 0.00000E+00
 -1       211 8.86500E+01 4.74020E+01 0.00000E+00
 -1       212 9.16500E+01 4.74020E+01 0.00000E+00
 -1       213 9.46500E+01 4.74020E+01 0.00000E+00
 -1       214 9.76500E+01 4.74020E+01 0.00000E+00
 -1       215 1.00650E+02 4.74020E+01 0.00000E+00
 -1       216 1.03650E+02 4.74020E+01 0.00000E+00
 -1       217 1.06650E+02 4.74020E+01 0.00000E+00
 -1       218 1.09650E+02 4.74020E+01 0.00000E+00
 -1       219 1.12650E+02 4.74020E+01 0.00000E+00
 -1       220 1.15650E+02 4.74020E+01 0.00000E+00
 -1       221 1.18650E+02 4.74020E+01 0.00000E+00
 -1       222 1.21650E+02 4.74020E+01 0.00000E+00
 -1       223 1.24650E+02 4.74020E+01 0.00000E+00
 -1       224 1.27650E+02 4.74020E+01 0.00000E+00
 -1       225 1.30650E+02 4.74020E+01 0.00000E+00
 -1       226 1.33650E+02 4.74020E+01 0.00000E+00
 -1       227 1.36650E+02 4.74020E+01 0.00000E+00
 -1       228 1.39650E+02 4.74020E+01 0.00000E+00
 -1       229 1.42650E+02 4.74020E+01 0.00000E+00
 -1       230 1.45650E+02 4.74020E+01 0.00000E+00
 -1       231 5.87400E+00 2.18750E+00 0.00000E+00
 -1       232 8.87400E+00 2.18750E+00 0.00000E+00
 -1       233 1.18740E+01 2.18750E+00 0.00000E+00
 -1       234 1.48740E+01 2.18750E+00 0.00000E+00
 -1       235 1.78740E+01 2.18750E+00 0.00000E+00
 -1       236 2.08740E+01 2.18750E+00 0.00000E+00
 -1       237 2.38740E+01 2.18750E+00 0.00000E+00
 -1       238 2.68740E+01 2.18750E+00 0.00000E+00
 -1       239 2.98740E+01 2.18750E+00 0.00000E+00
 -1       240 3.28740E+01 2.18750E+00 0.00000E+00
 -1       241 3.58740E+01 2.18750E+00 0.00000E+00
 -1       242 3.88740E+01 2.18750E+00 0.00000E+00
 -1       243 4.18740E+01 2.18750E+00 0.00000E+00
 -1       244 4.48740E+01 2.18750E+00 0.00000E+00
 -1       245 4.78740E+01 2.18750E+00 0.00000E+00
 -1       246 5.08740E+01 2.18750E+00 0.00000E+00
 -1       247 5.38740E+01 2.18750E+00 0.00000E+00
 -1       248 5.68740E+01 2.18750E+00 0.00000E+00
 -1       249 5.98740E+01 2.18750E+00 0.00000E+00
 -1       250 6.28740E+01 2.18750E+00 0.00000E+00
 -1       251 6.58740E+01 2.18750E+00 0.00000E+00
 -1       252 6.88740E+01 2.18750E+00 0.00000E+00
 -1       253 7.18740E+01 2.18750E+00 0.00000E+00
 -1       254 7.48740E+01 2.18750E+00 0.00000E+00
 -1       255 7.78740E+01 2.18750E+00 0.00000E+00
 -1       256 8.08740E+01 2.18750E+00 0.00000E+00
 -1       257 8.38740E+01 2.18750E+00 0.00000E+00
 -1       258 8.68740E+01 2.18750E+00 0.00000E+00
 -1       259 8.98740E+01 2.18750E+00 0.00000E+00
 -1       260 9.28740E+01 2.18750E+00 0.00000E+00
 -1       261 9.58740E+01 2.18750E+00 0.00000E+00
 -1       262 9.88740E+01 2.18750E+00 0.00000E+00
 -1       263 1.01874E+02 2.18750E+00 0.00000E+00
 -1       264 1.04874E+02 2.18750E+00 0.00000E+00
 -1       265 1.07874E+02 2.18750E+00 0.00000E+00
 -1       266 1.10874E+02 2.18750E+00 0.00000E+00
 -1       267 1.13874E+02 2.18750E+00 0.00000E+00
 -1       268 1.16874E+02 2.18750E+00 0.00000E+00
 -1       269 1.19874E+02 2.18750E+00 0.00000E+00
 -1       270 1.22874E+02 2.18750E+00 0.00000E+00
 -1       271 1.25874E+02 2.18750E+00 0.00000E+00
 -1       272 1.28874E+02 2.18750E+00 0.00000E+00
 -1       273 1.31874E+02 2.18750E+00 0.00000E+00
 -1       274 1.34874E+02 2.18750E+00 0.00000E+00
 -1       275 1.37874E+02 2.18750E+00 0.00000E+00
 -1       276 1.40874E+02 2.18750E+00 0.00000E+00
 -1       277 1.43874E+02 2.18750E+00 0.00000E+00
 -1       278 1.46874E+02 2.18750E+00 0.00000E+00
 -1       279 1.47402E+02 4.42500E+00 0.00000E+00
 -1       280 1.47402E+02 7.37500E+00 0.00000E+00
 -1       281 1.47402E+02 1.03250E+01 0.00000E+00
 -1       282 1.47402E+02 1.29750E+01 0.00000E+00
 -1       283 1.47402E+02 1.52750E+01 0.00000E+00
 -1       284 1.47402E+02 1.73250E+01 0.00000E+00
 -1       285 1.47402E+02 1.93250E+01 0.00000E+00
 -1       286 1.47402E+02 2.15750E+01 0.00000E+00
 -1       287 1.47402E+02 2.39750E+01 0.00000E+00
 -1       288 1.47402E+02 2.61750E+01 0.00000E+00
 -1       289 1.47402E+02 2.84750E+01 0.00000E+00
 -1       290 1.47402E+02 3.08750E+01 0.00000E+00
 -1       291 1.47402E+02 3.38250E+01 0.00000E+00
 -1       292 1.47402E+02 3.67750E+01 0.00000E+00
 -1       293 1.47402E+02 3.97250E+01 0.00000E+00
 -1       294 1.47402E+02 4.26750E+01 0.00000E+00
 -1       295 1.46526E+02 4.50385E+01 0.00000E+00
 -1       296 1.44565E+02 2.23780E+01 0.00000E+00
 -1       297 1.44311E+02 2.05082E+01 0.00000E+00
 -1       298 1.43314E+02 1.89668E+01 0.00000E+00
 -1       299 1.42254E+02 1.75942E+01 0.00000E+00
 -1       300 1.40885E+02 1.64413E+01 0.00000E+00
 -1       301 1.39323E+02 1.57002E+01 0.00000E+00
 -1       302 1.37743E+02 1.51603E+01 0.00000E+00
 -1       303 1.36043E+02 1.50335E+01 0.00000E+00
 -1       304 1.34338E+02 1.52611E+01 0.00000E+00
 -1       305 1.32716E+02 1.58371E+01 0.00000E+00
 -1       306 1.30915E+02 1.65939E+01 0.00000E+00
 -1       307 1.29861E+02 1.82202E+01 0.00000E+00
 -1       308 1.28963E+02 1.96343E+01 0.00000E+00
 -1       309 1.28290E+02 2.11811E+01 0.00000E+00
 -1       310 1.27950E+02 2.29530E+01 0.00000E+00
 -1       311 1.28232E+02 2.47424E+01 0.00000E+00
 -1       312 1.28558E+02 2.64481E+01 0.00000E+00
 -1       313 1.29515E+02 2.78849E+01 0.00000E+00
 -1       314 1.30550E+02 2.93439E+01 0.00000E+00
 -1       315 1.32098E+02 3.03122E+01 0.00000E+00
 -1       316 1.33641E+02 3.11143E+01 0.00000E+00
 -1       317 1.35356E+02 3.14091E+01 0.00000E+00
 -1       318 1.37074E+02 3.14241E+01 0.00000E+00
 -1       319 1.38801E+02 3.12380E+01 0.00000E+00
 -1       320 1.40256E+02 3.04362E+01 0.00000E+00
 -1       321 1.41689E+02 2.96367E+01 0.00000E+00
 -1       322 1.42700E+02 2.83556E+01 0.00000E+00
 -1       323 1.43695E+02 2.71129E+01 0.00000E+00
 -1       324 1.44059E+02 2.58672E+01 0.00000E+00
 -1       325 1.44502E+02 2.40804E+01 0.00000E+00
 -1       326 5.19600E+00 4.11500E+01 0.00000E+00
 -1       327 5.19600E+00 4.41000E+01 0.00000E+00
 -1       328 5.19600E+00 3.52750E+01 0.00000E+00
 -1       329 5.19600E+00 3.23250E+01 0.00000E+00
 -1       330 5.19600E+00 2.93750E+01 0.00000E+00
 -1       331 5.19600E+00 2.64250E+01 0.00000E+00
 -1       332 5.19600E+00 2.34750E+01 0.00000E+00
 -1       333 5.19600E+00 2.05250E+01 0.00000E+00
 -1       334 5.19600E+00 1.76250E+01 0.00000E+00
 -1       335 5.19600E+00 1.46750E+01 0.00000E+00
 -1       336 5.19600E+00 1.17250E+01 0.00000E+00
 -1       337 5.19600E+00 8.77500E+00 0.00000E+00
 -1       338 5.19600E+00 5.82500E+00 0.00000E+00
 -1       339 5.53500E+00 4.00625E+00 0.00000E+00
 -1       340 8.53500E+00 4.00625E+00 0.00000E+00
 -1       341 1.45539E+02 2.52856E+01 0.00000E+00
 -1       342 9.15000E+00 4.48040E+01 0.00000E+00
 -1       343 1.21500E+01 4.48040E+01 0.00000E+00
 -1       344 1.51500E+01 4.48040E+01 0.00000E+00
 -1       345 1.81500E+01 4.48040E+01 0.00000E+00
 -1       346 2.11500E+01 4.48040E+01 0.00000E+00
 -1       347 2.41500E+01 4.48040E+01 0.00000E+00
 -1       348 2.71500E+01 4.48040E+01 0.00000E+00
 -1       349 3.01500E+01 4.48040E+01 0.00000E+00
 -1       350 3.31500E+01 4.48040E+01 0.00000E+00
 -1       351 3.61500E+01 4.48040E+01 0.00000E+00
 -1       352 3.91500E+01 4.48040E+01 0.00000E+00
 -1       353 4.21500E+01 4.48040E+01 0.00000E+00
 -1       354 4.51500E+01 4.48040E+01 0.00000E+00
 -1       355 4.81500E+01 4.48040E+01 0.00000E+00
 -1       356 5.11500E+01 4.48040E+01 0.00000E+00
 -1       357 5.41500E+01 4.48040E+01 0.00000E+00
 -1       358 5.71500E+01 4.48040E+01 0.00000E+00
 -1       359 6.01500E+01 4.48040E+01 0.00000E+00
 -1       360 6.31500E+01 4.48040E+01 0.00000E+00
 -1       361 6.61500E+01 4.48040E+01 0.00000E+00
 -1       362 6.91500E+01 4.48040E+01 0.00000E+00
 -1       363 7.21500E+01 4.48040E+01 0.00000E+00
 -1       364 7.51500E+01 4.48040E+01 0.00000E+00
 -1       365 7.81500E+01 4.48040E+01 0.00000E+00
 -1       366 8.11500E+01 4.48040E+01 0.00000E+00
 -1       367 8.41500E+01 4.48040E+01 0.00000E+00
 -1       368 8.71500E+01 4.48040E+01 0.00000E+00
 -1       369 9.01500E+01 4.48040E+01 0.00000E+00
 -1       370 9.31500E+01 4.48040E+01 0.00000E+00
 -1       371 9.61500E+01 4.48040E+01 0.00000E+00
 -1       372 9.91500E+01 4.48040E+01 0.00000E+00
 -1       373 1.02150E+02 4.48040E+01 0.00000E+00
 -1       374 1.05150E+02 4.48040E+01 0.00000E+00
 -1       375 1.08150E+02 4.48040E+01 0.00000E+00
 -1       376 1.11150E+02 4.48040E+01 0.00000E+00
 -1       377 1.14150E+02 4.48040E+01 0.00000E+00
 -1       378 1.17150E+02 4.48040E+01 0.00000E+00
 -1       379 1.20150E+02 4.48040E+01 0.00000E+00
 -1       380 1.23150E+02 4.48040E+01 0.00000E+00
 -1       381 1.26150E+02 4.48040E+01 0.00000E+00
 -1       382 1.29150E+02 4.48040E+01 0.00000E+00
 -1       383 1.32150E+02 4.48040E+01 0.00000E+00
 -1       384 1.35150E+02 4.48040E+01 0.00000E+00
 -1       385 1.38150E+02 4.48040E+01 0.00000E+00
 -1       386 1.41150E+02 4.48040E+01 0.00000E+00
 -1       387 1.43838E+02 4.49212E+01 0.00000E+00
 -1       388 1.15350E+01 4.00625E+00 0.00000E+00
 -1       389 1.45350E+01 4.00625E+00 0.00000E+00
 -1       390 1.75350E+01 4.00625E+00 0.00000E+00
 -1       391 2.05350E+01 4.00625E+00 0.00000E+00
 -1       392 2.35350E+01 4.00625E+00 0.00000E+00
 -1       393 2.65350E+01 4.00625E+00 0.00000E+00
 -1       394 2.95350E+01 4.00625E+00 0.00000E+00
 -1       395 3.25350E+01 4.00625E+00 0.00000E+00
 -1       396 3.55350E+01 4.00625E+00 0.00000E+00
 -1       397 3.85350E+01 4.00625E+00 0.00000E+00
 -1       398 4.15350E+01 4.00625E+00 0.00000E+00
 -1       399 4.45350E+01 4.00625E+00 0.00000E+00
 -1       400 4.75350E+01 4.00625E+00 0.00000E+00
 -1       401 5.05350E+01 4.00625E+00 0.00000E+00
 -1       402 5.35350E+01 4.00625E+00 0.00000E+00
 -1       403 5.65350E+01 4.00625E+00 0.00000E+00
 -1       404 5.95350E+01 4.00625E+00 0.00000E+00
 -1       405 6.25350E+01 4.00625E+00 0.00000E+00
 -1       406 6.55350E+01 4.00625E+00 0.00000E+00
 -1       407 6.85350E+01 4.00625E+00 0.00000E+00
 -1       408 7.15350E+01 4.00625E+00 0.00000E+00
 -1       409 7.45350E+01 4.00625E+00 0.00000E+00
 -1       410 7.75350E+01 4.00625E+00 0.00000E+00
 -1       411 8.05350E+01 4.00625E+00 0.00000E+00
 -1       412 8.35350E+01 4.00625E+00 0.00000E+00
 -1       413 8.65350E+01 4.00625E+00 0.00000E+00
 -1       414 8.95350E+01 4.00625E+00 0.00000E+00
 -1       415 9.25350E+01 4.00625E+00 0.00000E+00
 -1       416 9.55350E+01 4.00625E+00 0.00000E+00
 -1       417 9.85350E+01 4.00625E+00 0.00000E+00
 -1       418 1.01535E+02 4.00625E+00 0.00000E+00
 -1       419 1.04535E+02 4.00625E+00 0.00000E+00
 -1       420 1.07535E+02 4.00625E+00 0.00000E+00
 -1       421 1.10535E+02 4.00625E+00 0.00000E+00
 -1       422 1.13535E+02 4.00625E+00 0.00000E+00
 -1       423 1.16535E+02 4.00625E+00 0.00000E+00
 -1       424 1.19535E+02 4.00625E+00 0.00000E+00
 -1       425 1.22535E+02 4.00625E+00 0.00000E+00
 -1       426 1.25535E+02 4.00625E+00 0.00000E+00
 -1       427 1.28535E+02 4.00625E+00 0.00000E+00
 -1       428 1.31535E+02 4.00625E+00 0.00000E+00
 -1       429 1.34535E+02 4.00625E+00 0.00000E+00
 -1       430 1.37535E+02 4.00625E+00 0.00000E+00
 -1       431 1.40535E+02 4.00625E+00 0.00000E+00
 -1       432 1.43535E+02 4.00625E+00 0.00000E+00
 -1       433 1.45469E+02 4.21562E+00 0.00000E+00
 -1       434 1.44804E+02 1.16500E+01 0.00000E+00
 -1       435 1.44804E+02 8.70000E+00 0.00000E+00
 -1       436 1.45136E+02 6.45781E+00 0.00000E+00
 -1       437 1.44804E+02 1.39500E+01 0.00000E+00
 -1       438 1.44804E+02 1.60000E+01 0.00000E+00
 -1       439 1.45352E+02 2.96750E+01 0.00000E+00
 -1       440 1.45352E+02 3.23500E+01 0.00000E+00
 -1       441 1.44849E+02 3.53000E+01 0.00000E+00
 -1       442 1.44849E+02 3.82500E+01 0.00000E+00
 -1       443 1.44849E+02 4.12000E+01 0.00000E+00
 -1       444 1.44901E+02 1.90338E+01 0.00000E+00
 -1       445 1.45971E+02 2.12349E+01 0.00000E+00
 -1       446 1.44009E+02 1.73346E+01 0.00000E+00
 -1       447 1.45174E+02 2.65314E+01 0.00000E+00
 -1       448 1.40803E+02 1.45968E+01 0.00000E+00
 -1       449 1.42567E+02 1.58340E+01 0.00000E+00
 -1       450 5.19600E+00 3.82125E+01 0.00000E+00
 -1       451 1.38979E+02 1.41244E+01 0.00000E+00
 -1       452 1.36989E+02 1.38043E+01 0.00000E+00
 -1       453 1.34997E+02 1.36964E+01 0.00000E+00
 -1       454 1.33009E+02 1.40908E+01 0.00000E+00
 -1       455 1.31208E+02 1.48476E+01 0.00000E+00
 -1       456 1.29230E+02 1.66561E+01 0.00000E+00
 -1       457 1.28247E+02 1.81880E+01 0.00000E+00
 -1       458 1.27438E+02 1.98902E+01 0.00000E+00
 -1       459 1.26600E+02 2.17755E+01 0.00000E+00
 -1       460 1.26728E+02 2.40623E+01 0.00000E+00
 -1       461 1.27039E+02 2.58543E+01 0.00000E+00
 -1       462 1.27957E+02 2.78851E+01 0.00000E+00
 -1       463 1.28838E+02 2.94613E+01 0.00000E+00
 -1       464 1.30592E+02 3.09980E+01 0.00000E+00
 -1       465 1.32272E+02 3.18634E+01 0.00000E+00
 -1       466 1.34265E+02 3.26217E+01 0.00000E+00
 -1       467 1.36201E+02 3.30479E+01 0.00000E+00
 -1       468 1.38086E+02 3.27031E+01 0.00000E+00
 -1       469 1.40235E+02 3.21192E+01 0.00000E+00
 -1       470 1.41668E+02 3.13196E+01 0.00000E+00
 -1       471 1.43212E+02 2.97991E+01 0.00000E+00
 -1       472 1.44207E+02 2.85564E+01 0.00000E+00
 -1       473 1.45983E+02 2.31765E+01 0.00000E+00
 -1       474 1.45352E+02 1.83250E+01 0.00000E+00
 -1       475 1.29523E+02 1.49098E+01 0.00000E+00
 -1       476 1.00350E+01 6.60425E+00 0.00000E+00
 -1       477 7.79400E+00 3.08500E+01 0.00000E+00
 -1       478 7.79400E+00 3.38000E+01 0.00000E+00
 -1       479 7.79400E+00 2.49500E+01 0.00000E+00
 -1       480 7.79400E+00 2.20000E+01 0.00000E+00
 -1       481 7.79400E+00 1.91000E+01 0.00000E+00
 -1       482 7.79400E+00 1.61500E+01 0.00000E+00
 -1       483 7.79400E+00 1.32000E+01 0.00000E+00
 -1       484 7.79400E+00 1.02500E+01 0.00000E+00
 -1       485 1.06500E+01 4.22060E+01 0.00000E+00
 -1       486 1.39610E+02 3.40662E+01 0.00000E+00
 -1       487 1.42251E+02 3.97250E+01 0.00000E+00
 -1       488 1.30350E+01 6.60425E+00 0.00000E+00
 -1       489 7.92300E+00 4.16780E+01 0.00000E+00
 -1       490 1.36500E+01 4.22060E+01 0.00000E+00
 -1       491 1.66500E+01 4.22060E+01 0.00000E+00
 -1       492 1.96500E+01 4.22060E+01 0.00000E+00
 -1       493 2.26500E+01 4.22060E+01 0.00000E+00
 -1       494 2.56500E+01 4.22060E+01 0.00000E+00
 -1       495 2.86500E+01 4.22060E+01 0.00000E+00
 -1       496 3.16500E+01 4.22060E+01 0.00000E+00
 -1       497 3.46500E+01 4.22060E+01 0.00000E+00
 -1       498 3.76500E+01 4.22060E+01 0.00000E+00
 -1       499 4.06500E+01 4.22060E+01 0.00000E+00
 -1       500 4.36500E+01 4.22060E+01 0.00000E+00
 -1       501 4.66500E+01 4.22060E+01 0.00000E+00
 -1       502 4.96500E+01 4.22060E+01 0.00000E+00
 -1       503 5.26500E+01 4.22060E+01 0.00000E+00
 -1       504 5.56500E+01 4.22060E+01 0.00000E+00
 -1       505 5.86500E+01 4.22060E+01 0.00000E+00
 -1       506 6.16500E+01 4.22060E+01 0.00000E+00
 -1       507 6.46500E+01 4.22060E+01 0.00000E+00
 -1       508 6.76500E+01 4.22060E+01 0.00000E+00
 -1       509 7.06500E+01 4.22060E+01 0.00000E+00
 -1       510 7.36500E+01 4.22060E+01 0.00000E+00
 -1       511 7.66500E+01 4.22060E+01 0.00000E+00
 -1       512 7.96500E+01 4.22060E+01 0.00000E+00
 -1       513 8.26500E+01 4.22060E+01 0.00000E+00
 -1       514 8.56500E+01 4.22060E+01 0.00000E+00
 -1       515 8.86500E+01 4.22060E+01 0.00000E+00
 -1       516 9.16500E+01 4.22060E+01 0.00000E+00
 -1       517 9.46500E+01 4.22060E+01 0.00000E+00
 -1       518 9.76500E+01 4.22060E+01 0.00000E+00
 -1       519 1.00650E+02 4.22060E+01 0.00000E+00
 -1       520 1.03650E+02 4.22060E+01 0.00000E+00
 -1       521 1.06650E+02 4.22060E+01 0.00000E+00
 -1       522 1.09650E+02 4.22060E+01 0.00000E+00
 -1       523 1.12650E+02 4.22060E+01 0.00000E+00
 -1       524 1.15650E+02 4.22060E+01 0.00000E+00
 -1       525 1.18650E+02 4.22060E+01 0.00000E+00
 -1       526 1.21650E+02 4.22060E+01 0.00000E+00
 -1       527 1.24650E+02 4.22060E+01 0.00000E+00
 -1       528 1.27650E+02 4.22060E+01 0.00000E+00
 -1       529 1.30650E+02 4.22060E+01 0.00000E+00
 -1       530 1.33650E+02 4.22060E+01 0.00000E+00
 -1       531 1.36650E+02 4.22060E+01 0.00000E+00
 -1       532 1.39650E+02 4.22060E+01 0.00000E+00
 -1       533 1.90350E+01 6.60425E+00 0.00000E+00
 -1       534 2.20350E+01 6.60425E+00 0.00000E+00
 -1       535 2.50350E+01 6.60425E+00 0.00000E+00
 -1       536 2.80350E+01 6.60425E+00 0.00000E+00
 -1       537 3.10350E+01 6.60425E+00 0.00000E+00
 -1       538 3.40350E+01 6.60425E+00 0.00000E+00
 -1       539 3.70350E+01 6.60425E+00 0.00000E+00
 -1       540 4.00350E+01 6.60425E+00 0.00000E+00
 -1       541 4.30350E+01 6.60425E+00 0.00000E+00
 -1       542 4.60350E+01 6.60425E+00 0.00000E+00
 -1       543 4.90350E+01 6.60425E+00 0.00000E+00
 -1       544 5.20350E+01 6.60425E+00 0.00000E+00
 -1       545 5.50350E+01 6.60425E+00 0.00000E+00
 -1       546 5.80350E+01 6.60425E+00 0.00000E+00
 -1       547 6.10350E+01 6.60425E+00 0.00000E+00
 -1       548 6.40350E+01 6.60425E+00 0.00000E+00
 -1       549 6.70350E+01 6.60425E+00 0.00000E+00
 -1       550 7.00350E+01 6.60425E+00 0.00000E+00
 -1       551 7.30350E+01 6.60425E+00 0.00000E+00
 -1       552 7.60350E+01 6.60425E+00 0.00000E+00
 -1       553 7.90350E+01 6.60425E+00 0.00000E+00
 -1       554 8.20350E+01 6.60425E+00 0.00000E+00
 -1       555 8.50350E+01 6.60425E+00 0.00000E+00
 -1       556 8.80350E+01 6.60425E+00 0.00000E+00
 -1       557 9.10350E+01 6.60425E+00 0.00000E+00
 -1       558 9.40350E+01 6.60425E+00 0.00000E+00
 -1       559 9.70350E+01 6.60425E+00 0.00000E+00
 -1       560 1.00035E+02 6.60425E+00 0.00000E+00
 -1       561 1.03035E+02 6.60425E+00 0.00000E+00
 -1       562 1.06035E+02 6.60425E+00 0.00000E+00
 -1       563 1.09035E+02 6.60425E+00 0.00000E+00
 -1       564 1.12035E+02 6.60425E+00 0.00000E+00
 -1       565 1.15035E+02 6.60425E+00 0.00000E+00
 -1       566 1.18035E+02 6.60425E+00 0.00000E+00
 -1       567 1.21035E+02 6.60425E+00 0.00000E+00
 -1       568 1.24035E+02 6.60425E+00 0.00000E+00
 -1       569 1.27035E+02 6.60425E+00 0.00000E+00
 -1       570 1.30035E+02 6.60425E+00 0.00000E+00
 -1       571 1.33035E+02 6.60425E+00 0.00000E+00
 -1       572 1.36035E+02 6.60425E+00 0.00000E+00
 -1       573 1.39035E+02 6.60425E+00 0.00000E+00
 -1       574 1.42035E+02 6.60425E+00 0.00000E+00
 -1       575 1.42419E+02 1.01750E+01 0.00000E+00
 -1       576 1.42419E+02 1.24750E+01 0.00000E+00
 -1       577 1.43637E+02 3.10125E+01 0.00000E+00
 -1       578 1.42251E+02 3.67750E+01 0.00000E+00
 -1       579 1.60350E+01 6.60425E+00 0.00000E+00
 -1       580 1.42754E+02 3.38250E+01 0.00000E+00
 -1       581 1.33669E+02 1.22113E+01 0.00000E+00
 -1       582 1.40279E+02 1.28625E+01 0.00000E+00
 -1       583 7.79400E+00 2.79000E+01 0.00000E+00