    1C
    1UUSER                                                              
    1UDATE              27.october.2022                                 
    1UTIME              00:08:28                                        
    1UHOST                                                              
    1UPGM               CalculiX                                        
    1UVERSION           Version 2.17                             
    1UCOMPILETIME       Thu Jul 23 21:43:50 CEST 2020                    
    1UDIR                                                               
    1UDBN                                                               
    1UMAT    1SOLIDMATERIAL                                             
    2C                          4262                                     1
 -1         1 9.81818E+01 1.69643E+01 0.00000E+00
 -1         2 1.07975E+02 1.05458E+01 0.00000E+00
 -1         3 1.50000E+02 0.00000E+00 0.00000E+00
 -1         4 1.50000E+02 5.00000E+01 0.00000E+00
 -1         5 0.00000E+00 0.00000E+00 0.00000E+00
 -1         6 0.00000E+00 5.00000E+01 0.00000E+00
 -1         7 0.00000E+00 4.70500E+01 0.00000E+00
 -1         8 0.00000E+00 4.41000E+01 0.00000E+00
 -1         9 0.00000E+00 4.11500E+01 0.00000E+00
 -1        10 0.00000E+00 3.82000E+01 0.00000E+00
 -1        11 0.00000E+00 3.52500E+01 0.00000E+00
 -1        12 0.00000E+00 3.23500E+01 0.00000E+00
 -1        13 0.00000E+00 2.94000E+01 0.00000E+00
 -1        14 0.00000E+00 2.64500E+01 0.00000E+00
 -1        15 0.00000E+00 2.35000E+01 0.00000E+00
 -1        16 0.00000E+00 2.05500E+01 0.00000E+00
 -1        17 0.00000E+00 1.76000E+01 0.00000E+00
 -1        18 0.00000E+00 1.47000E+01 0.00000E+00
 -1        19 0.00000E+00 1.17500E+01 0.00000E+00
 -1        20 0.00000E+00 8.80000E+00 0.00000E+00
 -1        21 0.00000E+00 5.85000E+00 0.00000E+00
 -1        22 0.00000E+00 2.90000E+00 0.00000E+00
 -1        23 3.15000E+00 5.00000E+01 0.00000E+00
 -1        24 6.15000E+00 5.00000E+01 0.00000E+00
 -1        25 9.15000E+00 5.00000E+01 0.00000E+00
 -1        26 1.21500E+01 5.00000E+01 0.00000E+00
 -1        27 1.51500E+01 5.00000E+01 0.00000E+00
 -1        28 1.81500E+01 5.00000E+01 0.00000E+00
 -1        29 2.11500E+01 5.00000E+01 0.00000E+00
 -1        30 2.41500E+01 5.00000E+01 0.00000E+00
 -1        31 2.71500E+01 5.00000E+01 0.00000E+00
 -1        32 3.01500E+01 5.00000E+01 0.00000E+00
 -1        33 3.31500E+01 5.00000E+01 0.00000E+00
 -1        34 3.61500E+01 5.00000E+01 0.00000E+00
 -1        35 3.91500E+01 5.00000E+01 0.00000E+00
 -1        36 4.21500E+01 5.00000E+01 0.00000E+00
 -1        37 4.51500E+01 5.00000E+01 0.00000E+00
 -1        38 4.81500E+01 5.00000E+01 0.00000E+00
 -1        39 5.11500E+01 5.00000E+01 0.00000E+00
 -1        40 5.41500E+01 5.00000E+01 0.00000E+00
 -1        41 5.71500E+01 5.00000E+01 0.00000E+00
 -1        42 6.01500E+01 5.00000E+01 0.00000E+00
 -1        43 6.31500E+01 5.00000E+01 0.00000E+00
 -1        44 6.61500E+01 5.00000E+01 0.00000E+00
 -1        45 6.91500E+01 5.00000E+01 0.00000E+00
 -1        46 7.21500E+01 5.00000E+01 0.00000E+00
 -1        47 7.51500E+01 5.00000E+01 0.00000E+00
 -1        48 7.81500E+01 5.00000E+01 0.00000E+00
 -1        49 8.11500E+01 5.00000E+01 0.00000E+00
 -1        50 8.41500E+01 5.00000E+01 0.00000E+00
 -1        51 8.71500E+01 5.00000E+01 0.00000E+00
 -1        52 9.01500E+01 5.00000E+01 0.00000E+00
 -1        53 9.31500E+01 5.00000E+01 0.00000E+00
 -1        54 9.61500E+01 5.00000E+01 0.00000E+00
 -1        55 9.91500E+01 5.00000E+01 0.00000E+00
 -1        56 1.02150E+02 5.00000E+01 0.00000E+00
 -1        57 1.05150E+02 5.00000E+01 0.00000E+00
 -1        58 1.08150E+02 5.00000E+01 0.00000E+00
 -1        59 1.11150E+02 5.00000E+01 0.00000E+00
 -1        60 1.14150E+02 5.00000E+01 0.00000E+00
 -1        61 1.17150E+02 5.00000E+01 0.00000E+00
 -1        62 1.20150E+02 5.00000E+01 0.00000E+00
 -1        63 1.23150E+02 5.00000E+01 0.00000E+00
 -1        64 1.26150E+02 5.00000E+01 0.00000E+00
 -1        65 1.29150E+02 5.00000E+01 0.00000E+00
 -1        66 1.32150E+02 5.00000E+01 0.00000E+00
 -1        67 1.35150E+02 5.00000E+01 0.00000E+00
 -1        68 1.38150E+02 5.00000E+01 0.00000E+00
 -1        69 1.41150E+02 5.00000E+01 0.00000E+00
 -1        70 1.44150E+02 5.00000E+01 0.00000E+00
 -1        71 1.47150E+02 5.00000E+01 0.00000E+00
 -1        72 3.15000E+00 0.00000E+00 0.00000E+00
 -1        73 6.15000E+00 0.00000E+00 0.00000E+00
 -1        74 9.15000E+00 0.00000E+00 0.00000E+00
 -1        75 1.21500E+01 0.00000E+00 0.00000E+00
 -1        76 1.51500E+01 0.00000E+00 0.00000E+00
 -1        77 1.83000E+01 0.00000E+00 0.00000E+00
 -1        78 2.13000E+01 0.00000E+00 0.00000E+00
 -1        79 2.43000E+01 0.00000E+00 0.00000E+00
 -1        80 2.73000E+01 0.00000E+00 0.00000E+00
 -1        81 3.03000E+01 0.00000E+00 0.00000E+00
 -1        82 3.33000E+01 0.00000E+00 0.00000E+00
 -1        83 3.64500E+01 0.00000E+00 0.00000E+00
 -1        84 3.94500E+01 0.00000E+00 0.00000E+00
 -1        85 4.24500E+01 0.00000E+00 0.00000E+00
 -1        86 4.54500E+01 0.00000E+00 0.00000E+00
 -1        87 4.84500E+01 0.00000E+00 0.00000E+00
 -1        88 5.16000E+01 0.00000E+00 0.00000E+00
 -1        89 5.46000E+01 0.00000E+00 0.00000E+00
 -1        90 5.76000E+01 0.00000E+00 0.00000E+00
 -1        91 6.06000E+01 0.00000E+00 0.00000E+00
 -1        92 6.36000E+01 0.00000E+00 0.00000E+00
 -1        93 6.66000E+01 0.00000E+00 0.00000E+00
 -1        94 6.97500E+01 0.00000E+00 0.00000E+00
 -1        95 7.27500E+01 0.00000E+00 0.00000E+00
 -1        96 7.57500E+01 0.00000E+00 0.00000E+00
 -1        97 7.87500E+01 0.00000E+00 0.00000E+00
 -1        98 8.17500E+01 0.00000E+00 0.00000E+00
 -1        99 8.49000E+01 0.00000E+00 0.00000E+00
 -1       100 8.79000E+01 0.00000E+00 0.00000E+00
 -1       101 9.06000E+01 0.00000E+00 0.00000E+00
 -1       102 9.36000E+01 0.00000E+00 0.00000E+00
 -1       103 9.60000E+01 0.00000E+00 0.00000E+00
 -1       104 9.82500E+01 0.00000E+00 0.00000E+00
 -1       105 1.00200E+02 0.00000E+00 0.00000E+00
 -1       106 1.02150E+02 0.00000E+00 0.00000E+00
 -1       107 1.04250E+02 0.00000E+00 0.00000E+00
 -1       108 1.06200E+02 0.00000E+00 0.00000E+00
 -1       109 1.08450E+02 0.00000E+00 0.00000E+00
 -1       110 1.11000E+02 0.00000E+00 0.00000E+00
 -1       111 1.13700E+02 0.00000E+00 0.00000E+00
 -1       112 1.16850E+02 0.00000E+00 0.00000E+00
 -1       113 1.19850E+02 0.00000E+00 0.00000E+00
 -1       114 1.22850E+02 0.00000E+00 0.00000E+00
 -1       115 1.25850E+02 0.00000E+00 0.00000E+00
 -1       116 1.28850E+02 0.00000E+00 0.00000E+00
 -1       117 1.31850E+02 0.00000E+00 0.00000E+00
 -1       118 1.35000E+02 0.00000E+00 0.00000E+00
 -1       119 1.38000E+02 0.00000E+00 0.00000E+00
 -1       120 1.41000E+02 0.00000E+00 0.00000E+00
 -1       121 1.44000E+02 0.00000E+00 0.00000E+00
 -1       122 1.47000E+02 0.00000E+00 0.00000E+00
 -1       123 1.50000E+02 2.95000E+00 0.00000E+00
 -1       124 1.50000E+02 5.90000E+00 0.00000E+00
 -1       125 1.50000E+02 8.85000E+00 0.00000E+00
 -1       126 1.50000E+02 1.18000E+01 0.00000E+00
 -1       127 1.50000E+02 1.47500E+01 0.00000E+00
 -1       128 1.50000E+02 1.76500E+01 0.00000E+00
 -1       129 1.50000E+02 2.06000E+01 0.00000E+00
 -1       130 1.50000E+02 2.35500E+01 0.00000E+00
 -1       131 1.50000E+02 2.65000E+01 0.00000E+00
 -1       132 1.50000E+02 2.94500E+01 0.00000E+00
 -1       133 1.50000E+02 3.24000E+01 0.00000E+00
 -1       134 1.50000E+02 3.53000E+01 0.00000E+00
 -1       135 1.50000E+02 3.82500E+01 0.00000E+00
 -1       136 1.50000E+02 4.12000E+01 0.00000E+00
 -1       137 1.50000E+02 4.41500E+01 0.00000E+00
 -1       138 1.50000E+02 4.71000E+01 0.00000E+00
 -1       139 1.07836E+02 9.15576E+00 0.00000E+00
 -1       140 1.07379E+02 7.71981E+00 0.00000E+00
 -1       141 1.06655E+02 6.45382E+00 0.00000E+00
 -1       142 1.05638E+02 5.32519E+00 0.00000E+00
 -1       143 1.04444E+02 4.46559E+00 0.00000E+00
 -1       144 1.03024E+02 3.85226E+00 0.00000E+00
 -1       145 1.01378E+02 3.55745E+00 0.00000E+00
 -1       146 9.99404E+01 3.62276E+00 0.00000E+00
 -1       147 9.84200E+01 4.02889E+00 0.00000E+00
 -1       148 9.71624E+01 4.67539E+00 0.00000E+00
 -1       149 9.59538E+01 5.66880E+00 0.00000E+00
 -1       150 9.50822E+01 6.76803E+00 0.00000E+00
 -1       151 9.44237E+01 8.08052E+00 0.00000E+00
 -1       152 9.40457E+01 9.55489E+00 0.00000E+00
 -1       153 9.39998E+01 1.11320E+01 0.00000E+00
 -1       154 9.42885E+01 1.26166E+01 0.00000E+00
 -1       155 9.48316E+01 1.39008E+01 0.00000E+00
 -1       156 9.56822E+01 1.51267E+01 0.00000E+00
 -1       157 9.68066E+01 1.61692E+01 0.00000E+00
 -1       158 9.94986E+01 1.73883E+01 0.00000E+00
 -1       159 1.00942E+02 1.75458E+01 0.00000E+00
 -1       160 1.02263E+02 1.74263E+01 0.00000E+00
 -1       161 1.03586E+02 1.70408E+01 0.00000E+00
 -1       162 1.04839E+02 1.63828E+01 0.00000E+00
 -1       163 1.05869E+02 1.55505E+01 0.00000E+00
 -1       164 1.06745E+02 1.45096E+01 0.00000E+00
 -1       165 1.07399E+02 1.33271E+01 0.00000E+00
 -1       166 1.07821E+02 1.20090E+01 0.00000E+00
 -1       167 2.59800E+00 4.55750E+01 0.00000E+00
 -1       168 2.59800E+00 4.26250E+01 0.00000E+00
 -1       169 2.59800E+00 3.96750E+01 0.00000E+00
 -1       170 2.59800E+00 3.67250E+01 0.00000E+00
 -1       171 2.59800E+00 3.38250E+01 0.00000E+00
 -1       172 2.59800E+00 3.08750E+01 0.00000E+00
 -1       173 2.59800E+00 2.79250E+01 0.00000E+00
 -1       174 2.59800E+00 2.49750E+01 0.00000E+00
 -1       175 2.59800E+00 2.20250E+01 0.00000E+00
 -1       176 2.59800E+00 1.90750E+01 0.00000E+00
 -1       177 2.59800E+00 1.61750E+01 0.00000E+00
 -1       178 2.59800E+00 1.32250E+01 0.00000E+00
 -1       179 2.59800E+00 1.02750E+01 0.00000E+00
 -1       180 2.59800E+00 7.32500E+00 0.00000E+00
 -1       181 2.59800E+00 4.37500E+00 0.00000E+00
 -1       182 2.87400E+00 2.18750E+00 0.00000E+00
 -1       183 4.65000E+00 4.74020E+01 0.00000E+00
 -1       184 7.65000E+00 4.74020E+01 0.00000E+00
 -1       185 1.06500E+01 4.74020E+01 0.00000E+00
 -1       186 1.36500E+01 4.74020E+01 0.00000E+00
 -1       187 1.66500E+01 4.74020E+01 0.00000E+00
 -1       188 1.96500E+01 4.74020E+01 0.00000E+00
 -1       189 2.26500E+01 4.74020E+01 0.00000E+00
 -1       190 2.56500E+01 4.74020E+01 0.00000E+00
 -1       191 2.86500E+01 4.74020E+01 0.00000E+00
 -1       192 3.16500E+01 4.74020E+01 0.00000E+00
 -1       193 3.46500E+01 4.74020E+01 0.00000E+00
 -1       194 3.76500E+01 4.74020E+01 0.00000E+00
 -1       195 4.06500E+01 4.74020E+01 0.00000E+00
 -1       196 4.36500E+01 4.74020E+01 0.00000E+00
 -1       197 4.66500E+01 4.74020E+01 0.00000E+00
 -1       198 4.96500E+01 4.74020E+01 0.00000E+00
 -1       199 5.26500E+01 4.74020E+01 0.00000E+00
 -1       200 5.56500E+01 4.74020E+01 0.00000E+00
 -1       201 5.86500E+01 4.74020E+01 0.00000E+00
 -1       202 6.16500E+01 4.74020E+01 0.00000E+00
 -1       203 6.46500E+01 4.74020E+01 0.00000E+00
 -1       204 6.76500E+01 4.74020E+01 0.00000E+00
 -1       205 7.06500E+01 4.74020E+01 0.00000E+00
 -1       206 7.36500E+01 4.74020E+01 0.00000E+00
 -1       207 7.66500E+01 4.74020E+01 0.00000E+00
 -1       208 7.96500E+01 4.74020E+01 0.00000E+00
 -1       209 8.26500E+01 4.74020E+01 0.00000E+00
 -1       210 8.56500E+01 4.74020E+01 0.00000E+00
 -1       211 8.86500E+01 4.74020E+01 0.00000E+00
 -1       212 9.16500E+01 4.74020E+01 0.00000E+00
 -1       213 9.46500E+01 4.74020E+01 0.00000E+00
 -1       214 9.76500E+01 4.74020E+01 0.00000E+00
 -1       215 1.00650E+02 4.74020E+01 0.00000E+00
 -1       216 1.03650E+02 4.74020E+01 0.00000E+00
 -1       217 1.06650E+02 4.74020E+01 0.00000E+00
 -1       218 1.09650E+02 4.74020E+01 0.00000E+00
 -1       219 1.12650E+02 4.74020E+01 0.00000E+00
 -1       220 1.15650E+02 4.74020E+01 0.00000E+00
 -1       221 1.18650E+02 4.74020E+01 0.00000E+00
 -1       222 1.21650E+02 4.74020E+01 0.00000E+00
 -1       223 1.24650E+02 4.74020E+01 0.00000E+00
 -1       224 1.27650E+02 4.74020E+01 0.00000E+00
 -1       225 1.30650E+02 4.74020E+01 0.00000E+00
 -1       226 1.33650E+02 4.74020E+01 0.00000E+00
 -1       227 1.36650E+02 4.74020E+01 0.00000E+00
 -1       228 1.39650E+02 4.74020E+01 0.00000E+00
 -1       229 1.42650E+02 4.74020E+01 0.00000E+00
 -1       230 1.45650E+02 4.74020E+01 0.00000E+00
 -1       231 5.87400E+00 2.18750E+00 0.00000E+00
 -1       232 8.87400E+00 2.18750E+00 0.00000E+00
 -1       233 1.18740E+01 2.18750E+00 0.00000E+00
 -1       234 1.48740E+01 2.18750E+00 0.00000E+00
 -1       235 1.80240E+01 2.18750E+00 0.00000E+00
 -1       236 2.10240E+01 2.18750E+00 0.00000E+00
 -1       237 2.40240E+01 2.18750E+00 0.00000E+00
 -1       238 2.70240E+01 2.18750E+00 0.00000E+00
 -1       239 3.00240E+01 2.18750E+00 0.00000E+00
 -1       240 3.30240E+01 2.18750E+00 0.00000E+00
 -1       241 3.61740E+01 2.18750E+00 0.00000E+00
 -1       242 3.91740E+01 2.18750E+00 0.00000E+00
 -1       243 4.21740E+01 2.18750E+00 0.00000E+00
 -1       244 4.51740E+01 2.18750E+00 0.00000E+00
 -1       245 4.81740E+01 2.18750E+00 0.00000E+00
 -1       246 5.13240E+01 2.18750E+00 0.00000E+00
 -1       247 5.43240E+01 2.18750E+00 0.00000E+00
 -1       248 5.73240E+01 2.18750E+00 0.00000E+00
 -1       249 6.03240E+01 2.18750E+00 0.00000E+00
 -1       250 6.33240E+01 2.18750E+00 0.00000E+00
 -1       251 6.63240E+01 2.18750E+00 0.00000E+00
 -1       252 6.94740E+01 2.18750E+00 0.00000E+00
 -1       253 7.24740E+01 2.18750E+00 0.00000E+00
 -1       254 7.54740E+01 2.18750E+00 0.00000E+00
 -1       255 7.84740E+01 2.18750E+00 0.00000E+00
 -1       256 8.14740E+01 2.18750E+00 0.00000E+00
 -1       257 8.46240E+01 2.18750E+00 0.00000E+00
 -1       258 8.76240E+01 2.18750E+00 0.00000E+00
 -1       259 9.03240E+01 2.18750E+00 0.00000E+00
 -1       260 9.33240E+01 2.18750E+00 0.00000E+00
 -1       261 9.71250E+01 1.88268E+00 0.00000E+00
 -1       262 1.01175E+02 1.63132E+00 0.00000E+00
 -1       263 1.03275E+02 1.63132E+00 0.00000E+00
 -1       264 1.05225E+02 1.63132E+00 0.00000E+00
 -1       265 1.07475E+02 1.63132E+00 0.00000E+00
 -1       266 1.10025E+02 1.63132E+00 0.00000E+00
 -1       267 1.12725E+02 1.63132E+00 0.00000E+00
 -1       268 1.15875E+02 1.63132E+00 0.00000E+00
 -1       269 1.18875E+02 1.63132E+00 0.00000E+00
 -1       270 1.21875E+02 1.63132E+00 0.00000E+00
 -1       271 1.24875E+02 1.63132E+00 0.00000E+00
 -1       272 1.27875E+02 1.63132E+00 0.00000E+00
 -1       273 1.30875E+02 1.63132E+00 0.00000E+00
 -1       274 1.34025E+02 1.63132E+00 0.00000E+00
 -1       275 1.37025E+02 1.63132E+00 0.00000E+00
 -1       276 1.40025E+02 1.63132E+00 0.00000E+00
 -1       277 1.43025E+02 1.63132E+00 0.00000E+00
 -1       278 1.46025E+02 1.63132E+00 0.00000E+00
 -1       279 1.48012E+02 2.29066E+00 0.00000E+00
 -1       280 1.48012E+02 5.24066E+00 0.00000E+00
 -1       281 1.48012E+02 8.19066E+00 0.00000E+00
 -1       282 1.48012E+02 1.11407E+01 0.00000E+00
 -1       283 1.48012E+02 1.40907E+01 0.00000E+00
 -1       284 1.48012E+02 1.69907E+01 0.00000E+00
 -1       285 1.48012E+02 1.99407E+01 0.00000E+00
 -1       286 1.48012E+02 2.28907E+01 0.00000E+00
 -1       287 1.48012E+02 2.58407E+01 0.00000E+00
 -1       288 1.48012E+02 2.87907E+01 0.00000E+00
 -1       289 1.48012E+02 3.17407E+01 0.00000E+00
 -1       290 1.48012E+02 3.46407E+01 0.00000E+00
 -1       291 1.48012E+02 3.75907E+01 0.00000E+00
 -1       292 1.48012E+02 4.05407E+01 0.00000E+00
 -1       293 1.48012E+02 4.34907E+01 0.00000E+00
 -1       294 1.09112E+02 9.72982E+00 0.00000E+00
 -1       295 1.08843E+02 8.04515E+00 0.00000E+00
 -1       296 1.08142E+02 6.44280E+00 0.00000E+00
 -1       297 1.07110E+02 5.02217E+00 0.00000E+00
 -1       298 1.05798E+02 3.84326E+00 0.00000E+00
 -1       299 1.04248E+02 2.96897E+00 0.00000E+00
 -1       300 1.00600E+02 2.29526E+00 0.00000E+00
 -1       301 9.88240E+01 2.49261E+00 0.00000E+00
 -1       302 9.72369E+01 3.27388E+00 0.00000E+00
 -1       303 9.56818E+01 4.10604E+00 0.00000E+00
 -1       304 9.45680E+01 5.46512E+00 0.00000E+00
 -1       305 9.36693E+01 6.88062E+00 0.00000E+00
 -1       306 9.30603E+01 8.51661E+00 0.00000E+00
 -1       307 9.27271E+01 1.03057E+01 0.00000E+00
 -1       308 9.28718E+01 1.21217E+01 0.00000E+00
 -1       309 9.34434E+01 1.37309E+01 0.00000E+00
 -1       310 9.42608E+01 1.52049E+01 0.00000E+00
 -1       311 9.53061E+01 1.66599E+01 0.00000E+00
 -1       312 9.68035E+01 1.77614E+01 0.00000E+00
 -1       313 9.84686E+01 1.83304E+01 0.00000E+00
 -1       314 1.00071E+02 1.88389E+01 0.00000E+00
 -1       315 1.01712E+02 1.86935E+01 0.00000E+00
 -1       316 1.03264E+02 1.83975E+01 0.00000E+00
 -1       317 1.04815E+02 1.78594E+01 0.00000E+00
 -1       318 1.06116E+02 1.69097E+01 0.00000E+00
 -1       319 1.07235E+02 1.58104E+01 0.00000E+00
 -1       320 1.08133E+02 1.45052E+01 0.00000E+00
 -1       321 1.08765E+02 1.30374E+01 0.00000E+00
 -1       322 1.09270E+02 1.14224E+01 0.00000E+00
 -1       323 1.47402E+02 4.56250E+01 0.00000E+00
 -1       324 5.19600E+00 4.11500E+01 0.00000E+00
 -1       325 5.19600E+00 4.41000E+01 0.00000E+00
 -1       326 5.19600E+00 3.52750E+01 0.00000E+00
 -1       327 5.19600E+00 3.23250E+01 0.00000E+00
 -1       328 5.19600E+00 2.93750E+01 0.00000E+00
 -1       329 5.19600E+00 2.64250E+01 0.00000E+00
 -1       330 5.19600E+00 2.34750E+01 0.00000E+00
 -1       331 5.19600E+00 2.05250E+01 0.00000E+00
 -1       332 5.19600E+00 1.76250E+01 0.00000E+00
 -1       333 5.19600E+00 1.46750E+01 0.00000E+00
 -1       334 5.19600E+00 1.17250E+01 0.00000E+00
 -1       335 5.19600E+00 8.77500E+00 0.00000E+00
 -1       336 5.19600E+00 5.82500E+00 0.00000E+00
 -1       337 5.53500E+00 4.00625E+00 0.00000E+00
 -1       338 8.53500E+00 4.00625E+00 0.00000E+00
 -1       339 9.15000E+00 4.48040E+01 0.00000E+00
 -1       340 1.21500E+01 4.48040E+01 0.00000E+00
 -1       341 1.51500E+01 4.48040E+01 0.00000E+00
 -1       342 1.81500E+01 4.48040E+01 0.00000E+00
 -1       343 2.11500E+01 4.48040E+01 0.00000E+00
 -1       344 2.41500E+01 4.48040E+01 0.00000E+00
 -1       345 2.71500E+01 4.48040E+01 0.00000E+00
 -1       346 3.01500E+01 4.48040E+01 0.00000E+00
 -1       347 3.31500E+01 4.48040E+01 0.00000E+00
 -1       348 3.61500E+01 4.48040E+01 0.00000E+00
 -1       349 3.91500E+01 4.48040E+01 0.00000E+00
 -1       350 4.21500E+01 4.48040E+01 0.00000E+00
 -1       351 4.51500E+01 4.48040E+01 0.00000E+00
 -1       352 4.81500E+01 4.48040E+01 0.00000E+00
 -1       353 5.11500E+01 4.48040E+01 0.00000E+00
 -1       354 5.41500E+01 4.48040E+01 0.00000E+00
 -1       355 5.71500E+01 4.48040E+01 0.00000E+00
 -1       356 6.01500E+01 4.48040E+01 0.00000E+00
 -1       357 6.31500E+01 4.48040E+01 0.00000E+00
 -1       358 6.61500E+01 4.48040E+01 0.00000E+00
 -1       359 6.91500E+01 4.48040E+01 0.00000E+00
 -1       360 7.21500E+01 4.48040E+01 0.00000E+00
 -1       361 7.51500E+01 4.48040E+01 0.00000E+00
 -1       362 7.81500E+01 4.48040E+01 0.00000E+00
 -1       363 8.11500E+01 4.48040E+01 0.00000E+00
 -1       364 8.41500E+01 4.48040E+01 0.00000E+00
 -1       365 8.71500E+01 4.48040E+01 0.00000E+00
 -1       366 9.01500E+01 4.48040E+01 0.00000E+00
 -1       367 9.31500E+01 4.48040E+01 0.00000E+00
 -1       368 9.61500E+01 4.48040E+01 0.00000E+00
 -1       369 9.91500E+01 4.48040E+01 0.00000E+00
 -1       370 1.02150E+02 4.48040E+01 0.00000E+00
 -1       371 1.05150E+02 4.48040E+01 0.00000E+00
 -1       372 1.08150E+02 4.48040E+01 0.00000E+00
 -1       373 1.11150E+02 4.48040E+01 0.00000E+00
 -1       374 1.14150E+02 4.48040E+01 0.00000E+00
 -1       375 1.17150E+02 4.48040E+01 0.00000E+00
 -1       376 1.20150E+02 4.48040E+01 0.00000E+00
 -1       377 1.23150E+02 4.48040E+01 0.00000E+00
 -1       378 1.26150E+02 4.48040E+01 0.00000E+00
 -1       379 1.29150E+02 4.48040E+01 0.00000E+00
 -1       380 1.32150E+02 4.48040E+01 0.00000E+00
 -1       381 1.35150E+02 4.48040E+01 0.00000E+00
 -1       382 1.38150E+02 4.48040E+01 0.00000E+00
 -1       383 1.41150E+02 4.48040E+01 0.00000E+00
 -1       384 1.44150E+02 4.48040E+01 0.00000E+00
 -1       385 1.09757E+02 6.69086E+00 0.00000E+00
 -1       386 1.15350E+01 4.00625E+00 0.00000E+00
 -1       387 1.45350E+01 4.00625E+00 0.00000E+00
 -1       388 1.76850E+01 4.00625E+00 0.00000E+00
 -1       389 2.06850E+01 4.00625E+00 0.00000E+00
 -1       390 2.36850E+01 4.00625E+00 0.00000E+00
 -1       391 2.66850E+01 4.00625E+00 0.00000E+00
 -1       392 2.96850E+01 4.00625E+00 0.00000E+00
 -1       393 3.26850E+01 4.00625E+00 0.00000E+00
 -1       394 3.58350E+01 4.00625E+00 0.00000E+00
 -1       395 3.88350E+01 4.00625E+00 0.00000E+00
 -1       396 4.18350E+01 4.00625E+00 0.00000E+00
 -1       397 4.48350E+01 4.00625E+00 0.00000E+00
 -1       398 4.78350E+01 4.00625E+00 0.00000E+00
 -1       399 5.09850E+01 4.00625E+00 0.00000E+00
 -1       400 5.39850E+01 4.00625E+00 0.00000E+00
 -1       401 5.69850E+01 4.00625E+00 0.00000E+00
 -1       402 5.99850E+01 4.00625E+00 0.00000E+00
 -1       403 6.29850E+01 4.00625E+00 0.00000E+00
 -1       404 6.59850E+01 4.00625E+00 0.00000E+00
 -1       405 6.91350E+01 4.00625E+00 0.00000E+00
 -1       406 7.21350E+01 4.00625E+00 0.00000E+00
 -1       407 7.51350E+01 4.00625E+00 0.00000E+00
 -1       408 7.81350E+01 4.00625E+00 0.00000E+00
 -1       409 8.11350E+01 4.00625E+00 0.00000E+00
 -1       410 8.42850E+01 4.00625E+00 0.00000E+00
 -1       411 8.72850E+01 4.00625E+00 0.00000E+00
 -1       412 8.99850E+01 4.00625E+00 0.00000E+00
 -1       413 9.58535E+01 2.55138E+00 0.00000E+00
 -1       414 1.08750E+02 3.34644E+00 0.00000E+00
 -1       415 1.11375E+02 3.84915E+00 0.00000E+00
 -1       416 1.14525E+02 3.84915E+00 0.00000E+00
 -1       417 1.17525E+02 3.84915E+00 0.00000E+00
 -1       418 1.20525E+02 3.84915E+00 0.00000E+00
 -1       419 1.23525E+02 3.84915E+00 0.00000E+00
 -1       420 1.26525E+02 3.84915E+00 0.00000E+00
 -1       421 1.29525E+02 3.84915E+00 0.00000E+00
 -1       422 1.32675E+02 3.84915E+00 0.00000E+00
 -1       423 1.35675E+02 3.84915E+00 0.00000E+00
 -1       424 1.38675E+02 3.84915E+00 0.00000E+00
 -1       425 1.41675E+02 3.84915E+00 0.00000E+00
 -1       426 1.44675E+02 3.84915E+00 0.00000E+00
 -1       427 1.46344E+02 4.54490E+00 0.00000E+00
 -1       428 1.45415E+02 9.66566E+00 0.00000E+00
 -1       429 1.45879E+02 7.10528E+00 0.00000E+00
 -1       430 1.45415E+02 1.26157E+01 0.00000E+00
 -1       431 1.45415E+02 1.55157E+01 0.00000E+00
 -1       432 1.45415E+02 1.84657E+01 0.00000E+00
 -1       433 1.45415E+02 2.14157E+01 0.00000E+00
 -1       434 1.45415E+02 2.43657E+01 0.00000E+00
 -1       435 1.45415E+02 2.73157E+01 0.00000E+00
 -1       436 1.45415E+02 3.02657E+01 0.00000E+00
 -1       437 1.45415E+02 3.31657E+01 0.00000E+00
 -1       438 1.45415E+02 3.61157E+01 0.00000E+00
 -1       439 1.45415E+02 3.90657E+01 0.00000E+00
 -1       440 1.45415E+02 4.20157E+01 0.00000E+00
 -1       441 1.07320E+02 3.46870E+00 0.00000E+00
 -1       442 1.10732E+02 1.04319E+01 0.00000E+00
 -1       443 1.08878E+02 4.82285E+00 0.00000E+00
 -1       444 5.19600E+00 3.82125E+01 0.00000E+00
 -1       445 9.40576E+01 3.91086E+00 0.00000E+00
 -1       446 9.30244E+01 5.47809E+00 0.00000E+00
 -1       447 9.19930E+01 7.18799E+00 0.00000E+00
 -1       448 9.15370E+01 9.15854E+00 0.00000E+00
 -1       449 9.12568E+01 1.13366E+01 0.00000E+00
 -1       450 9.19362E+01 1.33602E+01 0.00000E+00
 -1       451 9.26452E+01 1.51371E+01 0.00000E+00
 -1       452 9.35266E+01 1.68353E+01 0.00000E+00
 -1       453 9.51874E+01 1.83897E+01 0.00000E+00
 -1       454 9.71086E+01 1.95896E+01 0.00000E+00
 -1       455 9.87109E+01 2.00981E+01 0.00000E+00
 -1       456 1.01006E+02 2.00573E+01 0.00000E+00
 -1       457 1.02731E+02 1.98188E+01 0.00000E+00
 -1       458 1.04492E+02 1.94322E+01 0.00000E+00
 -1       459 1.06279E+02 1.84992E+01 0.00000E+00
 -1       460 1.07584E+02 1.72846E+01 0.00000E+00
 -1       461 1.08821E+02 1.59399E+01 0.00000E+00
 -1       462 1.09639E+02 1.42837E+01 0.00000E+00
 -1       463 1.10494E+02 1.26923E+01 0.00000E+00
 -1       464 1.10463E+02 8.74727E+00 0.00000E+00
 -1       465 9.18240E+01 4.40532E+00 0.00000E+00
 -1       466 7.79400E+00 3.08500E+01 0.00000E+00
 -1       467 7.79400E+00 3.38000E+01 0.00000E+00
 -1       468 7.79400E+00 2.49500E+01 0.00000E+00
 -1       469 7.79400E+00 2.20000E+01 0.00000E+00
 -1       470 7.79400E+00 1.91000E+01 0.00000E+00
 -1       471 7.79400E+00 1.61500E+01 0.00000E+00
 -1       472 7.79400E+00 1.32000E+01 0.00000E+00
 -1       473 7.79400E+00 1.02500E+01 0.00000E+00
 -1       474 7.79400E+00 7.30000E+00 0.00000E+00
 -1       475 8.16450E+00 5.65312E+00 0.00000E+00
 -1       476 1.61100E+01 6.60425E+00 0.00000E+00
 -1       477 1.16025E+02 6.23454E+00 0.00000E+00
 -1       478 1.31100E+01 6.60425E+00 0.00000E+00
 -1       479 1.06500E+01 4.22060E+01 0.00000E+00
 -1       480 7.92300E+00 4.16780E+01 0.00000E+00
 -1       481 1.36500E+01 4.22060E+01 0.00000E+00
 -1       482 1.66500E+01 4.22060E+01 0.00000E+00
 -1       483 1.96500E+01 4.22060E+01 0.00000E+00
 -1       484 2.26500E+01 4.22060E+01 0.00000E+00
 -1       485 2.56500E+01 4.22060E+01 0.00000E+00
 -1       486 2.86500E+01 4.22060E+01 0.00000E+00
 -1       487 3.16500E+01 4.22060E+01 0.00000E+00
 -1       488 3.46500E+01 4.22060E+01 0.00000E+00
 -1       489 3.76500E+01 4.22060E+01 0.00000E+00
 -1       490 4.06500E+01 4.22060E+01 0.00000E+00
 -1       491 4.36500E+01 4.22060E+01 0.00000E+00
 -1       492 4.66500E+01 4.22060E+01 0.00000E+00
 -1       493 4.96500E+01 4.22060E+01 0.00000E+00
 -1       494 5.26500E+01 4.22060E+01 0.00000E+00
 -1       495 5.56500E+01 4.22060E+01 0.00000E+00
 -1       496 5.86500E+01 4.22060E+01 0.00000E+00
 -1       497 6.16500E+01 4.22060E+01 0.00000E+00
 -1       498 6.46500E+01 4.22060E+01 0.00000E+00
 -1       499 6.76500E+01 4.22060E+01 0.00000E+00
 -1       500 7.06500E+01 4.22060E+01 0.00000E+00
 -1       501 7.36500E+01 4.22060E+01 0.00000E+00
 -1       502 7.66500E+01 4.22060E+01 0.00000E+00
 -1       503 7.96500E+01 4.22060E+01 0.00000E+00
 -1       504 8.26500E+01 4.22060E+01 0.00000E+00
 -1       505 8.56500E+01 4.22060E+01 0.00000E+00
 -1       506 8.86500E+01 4.22060E+01 0.00000E+00
 -1       507 9.16500E+01 4.22060E+01 0.00000E+00
 -1       508 9.46500E+01 4.22060E+01 0.00000E+00
 -1       509 9.76500E+01 4.22060E+01 0.00000E+00
 -1       510 1.00650E+02 4.22060E+01 0.00000E+00
 -1       511 1.03650E+02 4.22060E+01 0.00000E+00
 -1       512 1.06650E+02 4.22060E+01 0.00000E+00
 -1       513 1.09650E+02 4.22060E+01 0.00000E+00
 -1       514 1.12650E+02 4.22060E+01 0.00000E+00
 -1       515 1.15650E+02 4.22060E+01 0.00000E+00
 -1       516 1.18650E+02 4.22060E+01 0.00000E+00
 -1       517 1.21650E+02 4.22060E+01 0.00000E+00
 -1       518 1.24650E+02 4.22060E+01 0.00000E+00
 -1       519 1.27650E+02 4.22060E+01 0.00000E+00
 -1       520 1.30650E+02 4.22060E+01 0.00000E+00
 -1       521 1.33650E+02 4.22060E+01 0.00000E+00
 -1       522 1.36650E+02 4.22060E+01 0.00000E+00
 -1       523 1.39650E+02 4.22060E+01 0.00000E+00
 -1       524 1.42532E+02 4.21108E+01 0.00000E+00
 -1       525 1.06372E+01 6.12869E+00 0.00000E+00
 -1       526 1.91100E+01 6.60425E+00 0.00000E+00
 -1       527 2.21100E+01 6.60425E+00 0.00000E+00
 -1       528 2.51100E+01 6.60425E+00 0.00000E+00
 -1       529 2.81100E+01 6.60425E+00 0.00000E+00
 -1       530 3.11100E+01 6.60425E+00 0.00000E+00
 -1       531 3.42600E+01 6.60425E+00 0.00000E+00
 -1       532 3.72600E+01 6.60425E+00 0.00000E+00
 -1       533 4.02600E+01 6.60425E+00 0.00000E+00
 -1       534 4.32600E+01 6.60425E+00 0.00000E+00
 -1       535 4.62600E+01 6.60425E+00 0.00000E+00
 -1       536 4.94100E+01 6.60425E+00 0.00000E+00
 -1       537 5.24100E+01 6.60425E+00 0.00000E+00
 -1       538 5.54100E+01 6.60425E+00 0.00000E+00
 -1       539 5.84100E+01 6.60425E+00 0.00000E+00
 -1       540 6.14100E+01 6.60425E+00 0.00000E+00
 -1       541 6.44100E+01 6.60425E+00 0.00000E+00
 -1       542 6.75600E+01 6.60425E+00 0.00000E+00
 -1       543 7.05600E+01 6.60425E+00 0.00000E+00
 -1       544 7.35600E+01 6.60425E+00 0.00000E+00
 -1       545 7.65600E+01 6.60425E+00 0.00000E+00
 -1       546 7.95600E+01 6.60425E+00 0.00000E+00
 -1       547 8.27100E+01 6.60425E+00 0.00000E+00
 -1       548 8.57100E+01 6.60425E+00 0.00000E+00
 -1       549 8.86350E+01 5.88893E+00 0.00000E+00
 -1       550 1.11430E+02 1.42204E+01 0.00000E+00
 -1       551 1.12652E+02 1.17765E+01 0.00000E+00
 -1       552 1.12950E+02 6.23454E+00 0.00000E+00
 -1       553 1.22025E+02 6.44715E+00 0.00000E+00
 -1       554 1.25025E+02 6.44715E+00 0.00000E+00
 -1       555 1.28025E+02 6.44715E+00 0.00000E+00
 -1       556 1.31175E+02 6.44715E+00 0.00000E+00
 -1       557 1.34175E+02 6.44715E+00 0.00000E+00
 -1       558 1.37175E+02 6.44715E+00 0.00000E+00
 -1       559 1.40175E+02 6.44715E+00 0.00000E+00
 -1       560 1.44210E+02 6.40952E+00 0.00000E+00
 -1       561 1.42816E+02 1.40657E+01 0.00000E+00
 -1       562 1.42816E+02 1.70157E+01 0.00000E+00
 -1       563 1.42816E+02 1.11157E+01 0.00000E+00
 -1       564 1.42816E+02 1.99657E+01 0.00000E+00
 -1       565 1.42816E+02 2.29157E+01 0.00000E+00
 -1       566 1.42816E+02 2.58657E+01 0.00000E+00
 -1       567 1.42816E+02 2.88157E+01 0.00000E+00
 -1       568 1.42816E+02 3.17157E+01 0.00000E+00
 -1       569 1.42816E+02 3.46657E+01 0.00000E+00
 -1       570 1.42816E+02 3.76157E+01 0.00000E+00
 -1       571 1.42674E+02 3.98632E+01 0.00000E+00
 -1       572 9.02573E+01 7.82443E+00 0.00000E+00
 -1       573 9.52838E+01 2.03733E+01 0.00000E+00
 -1       574 1.19025E+02 6.44715E+00 0.00000E+00
 -1       575 7.79400E+00 2.79000E+01 0.00000E+00
 -1       576 9.08297E+01 5.68351E+00 0.00000E+00
 -1       577 1.11494E+02 7.24362E+00 0.00000E+00
 -1       578 1.02069E+02 2.13880E+01 0.00000E+00
 -1       579 8.96958E+01 1.00287E+01 0.00000E+00
 -1       580 9.01294E+01 1.28410E+01 0.00000E+00
 -1       581 9.06977E+01 1.48843E+01 0.00000E+00
 -1       582 9.15791E+01 1.65825E+01 0.00000E+00
 -1       583 9.31850E+01 1.88647E+01 0.00000E+00