    1C
    1UUSER                                                              
    1UDATE              27.october.2022                                 
    1UTIME              00:07:49                                        
    1UHOST                                                              
    1UPGM               CalculiX                                        
    1UVERSION           Version 2.17                             
    1UCOMPILETIME       Thu Jul 23 21:43:50 CEST 2020                    
    1UDIR                                                               
    1UDBN                                                               
    1UMAT    1SOLIDMATERIAL                                             
    2C                          4264                                     1
 -1         1 8.35491E+01 1.72727E+01 0.00000E+00
 -1         2 8.50597E+01 1.29292E+01 0.00000E+00
 -1         3 1.50000E+02 0.00000E+00 0.00000E+00
 -1         4 1.50000E+02 5.00000E+01 0.00000E+00
 -1         5 0.00000E+00 0.00000E+00 0.00000E+00
 -1         6 0.00000E+00 5.00000E+01 0.00000E+00
 -1         7 0.00000E+00 4.70500E+01 0.00000E+00
 -1         8 0.00000E+00 4.41000E+01 0.00000E+00
 -1         9 0.00000E+00 4.11500E+01 0.00000E+00
 -1        10 0.00000E+00 3.82000E+01 0.00000E+00
 -1        11 0.00000E+00 3.52500E+01 0.00000E+00
 -1        12 0.00000E+00 3.23500E+01 0.00000E+00
 -1        13 0.00000E+00 2.94000E+01 0.00000E+00
 -1        14 0.00000E+00 2.64500E+01 0.00000E+00
 -1        15 0.00000E+00 2.35000E+01 0.00000E+00
 -1        16 0.00000E+00 2.05500E+01 0.00000E+00
 -1        17 0.00000E+00 1.76000E+01 0.00000E+00
 -1        18 0.00000E+00 1.47000E+01 0.00000E+00
 -1        19 0.00000E+00 1.17500E+01 0.00000E+00
 -1        20 0.00000E+00 8.80000E+00 0.00000E+00
 -1        21 0.00000E+00 5.85000E+00 0.00000E+00
 -1        22 0.00000E+00 2.90000E+00 0.00000E+00
 -1        23 3.15000E+00 5.00000E+01 0.00000E+00
 -1        24 6.15000E+00 5.00000E+01 0.00000E+00
 -1        25 9.15000E+00 5.00000E+01 0.00000E+00
 -1        26 1.21500E+01 5.00000E+01 0.00000E+00
 -1        27 1.51500E+01 5.00000E+01 0.00000E+00
 -1        28 1.81500E+01 5.00000E+01 0.00000E+00
 -1        29 2.11500E+01 5.00000E+01 0.00000E+00
 -1        30 2.41500E+01 5.00000E+01 0.00000E+00
 -1        31 2.71500E+01 5.00000E+01 0.00000E+00
 -1        32 3.01500E+01 5.00000E+01 0.00000E+00
 -1        33 3.31500E+01 5.00000E+01 0.00000E+00
 -1        34 3.61500E+01 5.00000E+01 0.00000E+00
 -1        35 3.91500E+01 5.00000E+01 0.00000E+00
 -1        36 4.21500E+01 5.00000E+01 0.00000E+00
 -1        37 4.51500E+01 5.00000E+01 0.00000E+00
 -1        38 4.81500E+01 5.00000E+01 0.00000E+00
 -1        39 5.11500E+01 5.00000E+01 0.00000E+00
 -1        40 5.41500E+01 5.00000E+01 0.00000E+00
 -1        41 5.71500E+01 5.00000E+01 0.00000E+00
 -1        42 6.01500E+01 5.00000E+01 0.00000E+00
 -1        43 6.31500E+01 5.00000E+01 0.00000E+00
 -1        44 6.61500E+01 5.00000E+01 0.00000E+00
 -1        45 6.91500E+01 5.00000E+01 0.00000E+00
 -1        46 7.21500E+01 5.00000E+01 0.00000E+00
 -1        47 7.51500E+01 5.00000E+01 0.00000E+00
 -1        48 7.81500E+01 5.00000E+01 0.00000E+00
 -1        49 8.11500E+01 5.00000E+01 0.00000E+00
 -1        50 8.41500E+01 5.00000E+01 0.00000E+00
 -1        51 8.71500E+01 5.00000E+01 0.00000E+00
 -1        52 9.01500E+01 5.00000E+01 0.00000E+00
 -1        53 9.31500E+01 5.00000E+01 0.00000E+00
 -1        54 9.61500E+01 5.00000E+01 0.00000E+00
 -1        55 9.91500E+01 5.00000E+01 0.00000E+00
 -1        56 1.02150E+02 5.00000E+01 0.00000E+00
 -1        57 1.05150E+02 5.00000E+01 0.00000E+00
 -1        58 1.08150E+02 5.00000E+01 0.00000E+00
 -1        59 1.11150E+02 5.00000E+01 0.00000E+00
 -1        60 1.14150E+02 5.00000E+01 0.00000E+00
 -1        61 1.17150E+02 5.00000E+01 0.00000E+00
 -1        62 1.20150E+02 5.00000E+01 0.00000E+00
 -1        63 1.23150E+02 5.00000E+01 0.00000E+00
 -1        64 1.26150E+02 5.00000E+01 0.00000E+00
 -1        65 1.29150E+02 5.00000E+01 0.00000E+00
 -1        66 1.32150E+02 5.00000E+01 0.00000E+00
 -1        67 1.35150E+02 5.00000E+01 0.00000E+00
 -1        68 1.38150E+02 5.00000E+01 0.00000E+00
 -1        69 1.41150E+02 5.00000E+01 0.00000E+00
 -1        70 1.44150E+02 5.00000E+01 0.00000E+00
 -1        71 1.47150E+02 5.00000E+01 0.00000E+00
 -1        72 3.15000E+00 0.00000E+00 0.00000E+00
 -1        73 6.15000E+00 0.00000E+00 0.00000E+00
 -1        74 9.15000E+00 0.00000E+00 0.00000E+00
 -1        75 1.21500E+01 0.00000E+00 0.00000E+00
 -1        76 1.51500E+01 0.00000E+00 0.00000E+00
 -1        77 1.81500E+01 0.00000E+00 0.00000E+00
 -1        78 2.11500E+01 0.00000E+00 0.00000E+00
 -1        79 2.41500E+01 0.00000E+00 0.00000E+00
 -1        80 2.71500E+01 0.00000E+00 0.00000E+00
 -1        81 3.01500E+01 0.00000E+00 0.00000E+00
 -1        82 3.31500E+01 0.00000E+00 0.00000E+00
 -1        83 3.61500E+01 0.00000E+00 0.00000E+00
 -1        84 3.93000E+01 0.00000E+00 0.00000E+00
 -1        85 4.23000E+01 0.00000E+00 0.00000E+00
 -1        86 4.53000E+01 0.00000E+00 0.00000E+00
 -1        87 4.83000E+01 0.00000E+00 0.00000E+00
 -1        88 5.13000E+01 0.00000E+00 0.00000E+00
 -1        89 5.43000E+01 0.00000E+00 0.00000E+00
 -1        90 5.73000E+01 0.00000E+00 0.00000E+00
 -1        91 6.03000E+01 0.00000E+00 0.00000E+00
 -1        92 6.33000E+01 0.00000E+00 0.00000E+00
 -1        93 6.63000E+01 0.00000E+00 0.00000E+00
 -1        94 6.93000E+01 0.00000E+00 0.00000E+00
 -1        95 7.21500E+01 0.00000E+00 0.00000E+00
 -1        96 7.47000E+01 0.00000E+00 0.00000E+00
 -1        97 7.71000E+01 0.00000E+00 0.00000E+00
 -1        98 7.96500E+01 0.00000E+00 0.00000E+00
 -1        99 8.20500E+01 0.00000E+00 0.00000E+00
 -1       100 8.43000E+01 0.00000E+00 0.00000E+00
 -1       101 8.70000E+01 0.00000E+00 0.00000E+00
 -1       102 8.98500E+01 0.00000E+00 0.00000E+00
 -1       103 9.28500E+01 0.00000E+00 0.00000E+00
 -1       104 9.58500E+01 0.00000E+00 0.00000E+00
 -1       105 9.88500E+01 0.00000E+00 0.00000E+00
 -1       106 1.01850E+02 0.00000E+00 0.00000E+00
 -1       107 1.04850E+02 0.00000E+00 0.00000E+00
 -1       108 1.07850E+02 0.00000E+00 0.00000E+00
 -1       109 1.10850E+02 0.00000E+00 0.00000E+00
 -1       110 1.14000E+02 0.00000E+00 0.00000E+00
 -1       111 1.17000E+02 0.00000E+00 0.00000E+00
 -1       112 1.20000E+02 0.00000E+00 0.00000E+00
 -1       113 1.23000E+02 0.00000E+00 0.00000E+00
 -1       114 1.26000E+02 0.00000E+00 0.00000E+00
 -1       115 1.29000E+02 0.00000E+00 0.00000E+00
 -1       116 1.32000E+02 0.00000E+00 0.00000E+00
 -1       117 1.35000E+02 0.00000E+00 0.00000E+00
 -1       118 1.38000E+02 0.00000E+00 0.00000E+00
 -1       119 1.41000E+02 0.00000E+00 0.00000E+00
 -1       120 1.44000E+02 0.00000E+00 0.00000E+00
 -1       121 1.47000E+02 0.00000E+00 0.00000E+00
 -1       122 1.50000E+02 2.95000E+00 0.00000E+00
 -1       123 1.50000E+02 5.90000E+00 0.00000E+00
 -1       124 1.50000E+02 8.85000E+00 0.00000E+00
 -1       125 1.50000E+02 1.18000E+01 0.00000E+00
 -1       126 1.50000E+02 1.47500E+01 0.00000E+00
 -1       127 1.50000E+02 1.76500E+01 0.00000E+00
 -1       128 1.50000E+02 2.06000E+01 0.00000E+00
 -1       129 1.50000E+02 2.35500E+01 0.00000E+00
 -1       130 1.50000E+02 2.65000E+01 0.00000E+00
 -1       131 1.50000E+02 2.94500E+01 0.00000E+00
 -1       132 1.50000E+02 3.24000E+01 0.00000E+00
 -1       133 1.50000E+02 3.53000E+01 0.00000E+00
 -1       134 1.50000E+02 3.82500E+01 0.00000E+00
 -1       135 1.50000E+02 4.12000E+01 0.00000E+00
 -1       136 1.50000E+02 4.41500E+01 0.00000E+00
 -1       137 1.50000E+02 4.71000E+01 0.00000E+00
 -1       138 8.48982E+01 1.14340E+01 0.00000E+00
 -1       139 8.43764E+01 9.91269E+00 0.00000E+00
 -1       140 8.34693E+01 8.48656E+00 0.00000E+00
 -1       141 8.24284E+01 7.45975E+00 0.00000E+00
 -1       142 8.12115E+01 6.67887E+00 0.00000E+00
 -1       143 7.97604E+01 6.13892E+00 0.00000E+00
 -1       144 7.82908E+01 5.93300E+00 0.00000E+00
 -1       145 7.68009E+01 6.04329E+00 0.00000E+00
 -1       146 7.52538E+01 6.51614E+00 0.00000E+00
 -1       147 7.38443E+01 7.34079E+00 0.00000E+00
 -1       148 7.27667E+01 8.34836E+00 0.00000E+00
 -1       149 7.19508E+01 9.51137E+00 0.00000E+00
 -1       150 7.13557E+01 1.09153E+01 0.00000E+00
 -1       151 7.10909E+01 1.22689E+01 0.00000E+00
 -1       152 7.11063E+01 1.37354E+01 0.00000E+00
 -1       153 7.14217E+01 1.51510E+01 0.00000E+00
 -1       154 7.20286E+01 1.64825E+01 0.00000E+00
 -1       155 7.29798E+01 1.77453E+01 0.00000E+00
 -1       156 7.41215E+01 1.87163E+01 0.00000E+00
 -1       157 7.54312E+01 1.94169E+01 0.00000E+00
 -1       158 7.68643E+01 1.98264E+01 0.00000E+00
 -1       159 7.82622E+01 1.99263E+01 0.00000E+00
 -1       160 7.97779E+01 1.97150E+01 0.00000E+00
 -1       161 8.12270E+01 1.91716E+01 0.00000E+00
 -1       162 8.24412E+01 1.83883E+01 0.00000E+00
 -1       163 8.43735E+01 1.59518E+01 0.00000E+00
 -1       164 8.48892E+01 1.44649E+01 0.00000E+00
 -1       165 2.59800E+00 4.55750E+01 0.00000E+00
 -1       166 2.59800E+00 4.26250E+01 0.00000E+00
 -1       167 2.59800E+00 3.96750E+01 0.00000E+00
 -1       168 2.59800E+00 3.67250E+01 0.00000E+00
 -1       169 2.59800E+00 3.38250E+01 0.00000E+00
 -1       170 2.59800E+00 3.08750E+01 0.00000E+00
 -1       171 2.59800E+00 2.79250E+01 0.00000E+00
 -1       172 2.59800E+00 2.49750E+01 0.00000E+00
 -1       173 2.59800E+00 2.20250E+01 0.00000E+00
 -1       174 2.59800E+00 1.90750E+01 0.00000E+00
 -1       175 2.59800E+00 1.61750E+01 0.00000E+00
 -1       176 2.59800E+00 1.32250E+01 0.00000E+00
 -1       177 2.59800E+00 1.02750E+01 0.00000E+00
 -1       178 2.59800E+00 7.32500E+00 0.00000E+00
 -1       179 2.59800E+00 4.37500E+00 0.00000E+00
 -1       180 2.87400E+00 2.18750E+00 0.00000E+00
 -1       181 4.65000E+00 4.74020E+01 0.00000E+00
 -1       182 7.65000E+00 4.74020E+01 0.00000E+00
 -1       183 1.06500E+01 4.74020E+01 0.00000E+00
 -1       184 1.36500E+01 4.74020E+01 0.00000E+00
 -1       185 1.66500E+01 4.74020E+01 0.00000E+00
 -1       186 1.96500E+01 4.74020E+01 0.00000E+00
 -1       187 2.26500E+01 4.74020E+01 0.00000E+00
 -1       188 2.56500E+01 4.74020E+01 0.00000E+00
 -1       189 2.86500E+01 4.74020E+01 0.00000E+00
 -1       190 3.16500E+01 4.74020E+01 0.00000E+00
 -1       191 3.46500E+01 4.74020E+01 0.00000E+00
 -1       192 3.76500E+01 4.74020E+01 0.00000E+00
 -1       193 4.06500E+01 4.74020E+01 0.00000E+00
 -1       194 4.36500E+01 4.74020E+01 0.00000E+00
 -1       195 4.66500E+01 4.74020E+01 0.00000E+00
 -1       196 4.96500E+01 4.74020E+01 0.00000E+00
 -1       197 5.26500E+01 4.74020E+01 0.00000E+00
 -1       198 5.56500E+01 4.74020E+01 0.00000E+00
 -1       199 5.86500E+01 4.74020E+01 0.00000E+00
 -1       200 6.16500E+01 4.74020E+01 0.00000E+00
 -1       201 6.46500E+01 4.74020E+01 0.00000E+00
 -1       202 6.76500E+01 4.74020E+01 0.00000E+00
 -1       203 7.06500E+01 4.74020E+01 0.00000E+00
 -1       204 7.36500E+01 4.74020E+01 0.00000E+00
 -1       205 7.66500E+01 4.74020E+01 0.00000E+00
 -1       206 7.96500E+01 4.74020E+01 0.00000E+00
 -1       207 8.26500E+01 4.74020E+01 0.00000E+00
 -1       208 8.56500E+01 4.74020E+01 0.00000E+00
 -1       209 8.86500E+01 4.74020E+01 0.00000E+00
 -1       210 9.16500E+01 4.74020E+01 0.00000E+00
 -1       211 9.46500E+01 4.74020E+01 0.00000E+00
 -1       212 9.76500E+01 4.74020E+01 0.00000E+00
 -1       213 1.00650E+02 4.74020E+01 0.00000E+00
 -1       214 1.03650E+02 4.74020E+01 0.00000E+00
 -1       215 1.06650E+02 4.74020E+01 0.00000E+00
 -1       216 1.09650E+02 4.74020E+01 0.00000E+00
 -1       217 1.12650E+02 4.74020E+01 0.00000E+00
 -1       218 1.15650E+02 4.74020E+01 0.00000E+00
 -1       219 1.18650E+02 4.74020E+01 0.00000E+00
 -1       220 1.21650E+02 4.74020E+01 0.00000E+00
 -1       221 1.24650E+02 4.74020E+01 0.00000E+00
 -1       222 1.27650E+02 4.74020E+01 0.00000E+00
 -1       223 1.30650E+02 4.74020E+01 0.00000E+00
 -1       224 1.33650E+02 4.74020E+01 0.00000E+00
 -1       225 1.36650E+02 4.74020E+01 0.00000E+00
 -1       226 1.39650E+02 4.74020E+01 0.00000E+00
 -1       227 1.42650E+02 4.74020E+01 0.00000E+00
 -1       228 1.45650E+02 4.74020E+01 0.00000E+00
 -1       229 5.87400E+00 2.18750E+00 0.00000E+00
 -1       230 8.87400E+00 2.18750E+00 0.00000E+00
 -1       231 1.18740E+01 2.18750E+00 0.00000E+00
 -1       232 1.48740E+01 2.18750E+00 0.00000E+00
 -1       233 1.78740E+01 2.18750E+00 0.00000E+00
 -1       234 2.08740E+01 2.18750E+00 0.00000E+00
 -1       235 2.38740E+01 2.18750E+00 0.00000E+00
 -1       236 2.68740E+01 2.18750E+00 0.00000E+00
 -1       237 2.98740E+01 2.18750E+00 0.00000E+00
 -1       238 3.28740E+01 2.18750E+00 0.00000E+00
 -1       239 3.58740E+01 2.18750E+00 0.00000E+00
 -1       240 3.90240E+01 2.18750E+00 0.00000E+00
 -1       241 4.20240E+01 2.18750E+00 0.00000E+00
 -1       242 4.50240E+01 2.18750E+00 0.00000E+00
 -1       243 4.80240E+01 2.18750E+00 0.00000E+00
 -1       244 5.10240E+01 2.18750E+00 0.00000E+00
 -1       245 5.40240E+01 2.18750E+00 0.00000E+00
 -1       246 5.70240E+01 2.18750E+00 0.00000E+00
 -1       247 6.00240E+01 2.18750E+00 0.00000E+00
 -1       248 6.30240E+01 2.18750E+00 0.00000E+00
 -1       249 6.60240E+01 2.18750E+00 0.00000E+00
 -1       250 6.90240E+01 2.18750E+00 0.00000E+00
 -1       251 7.18740E+01 2.18750E+00 0.00000E+00
 -1       252 7.44240E+01 2.18750E+00 0.00000E+00
 -1       253 7.68240E+01 2.18750E+00 0.00000E+00
 -1       254 7.93740E+01 2.18750E+00 0.00000E+00
 -1       255 8.17740E+01 2.18750E+00 0.00000E+00
 -1       256 8.40240E+01 2.18750E+00 0.00000E+00
 -1       257 8.67240E+01 2.18750E+00 0.00000E+00
 -1       258 8.95740E+01 2.18750E+00 0.00000E+00
 -1       259 9.25740E+01 2.18750E+00 0.00000E+00
 -1       260 9.55740E+01 2.18750E+00 0.00000E+00
 -1       261 9.85740E+01 2.18750E+00 0.00000E+00
 -1       262 1.01574E+02 2.18750E+00 0.00000E+00
 -1       263 1.04574E+02 2.18750E+00 0.00000E+00
 -1       264 1.07574E+02 2.18750E+00 0.00000E+00
 -1       265 1.10574E+02 2.18750E+00 0.00000E+00
 -1       266 1.13724E+02 2.18750E+00 0.00000E+00
 -1       267 1.16724E+02 2.18750E+00 0.00000E+00
 -1       268 1.19724E+02 2.18750E+00 0.00000E+00
 -1       269 1.22724E+02 2.18750E+00 0.00000E+00
 -1       270 1.25724E+02 2.18750E+00 0.00000E+00
 -1       271 1.28724E+02 2.18750E+00 0.00000E+00
 -1       272 1.31724E+02 2.18750E+00 0.00000E+00
 -1       273 1.34724E+02 2.18750E+00 0.00000E+00
 -1       274 1.37724E+02 2.18750E+00 0.00000E+00
 -1       275 1.40724E+02 2.18750E+00 0.00000E+00
 -1       276 1.43724E+02 2.18750E+00 0.00000E+00
 -1       277 1.46724E+02 2.18750E+00 0.00000E+00
 -1       278 1.47402E+02 4.42500E+00 0.00000E+00
 -1       279 1.47402E+02 7.37500E+00 0.00000E+00
 -1       280 1.47402E+02 1.03250E+01 0.00000E+00
 -1       281 1.47402E+02 1.32750E+01 0.00000E+00
 -1       282 1.47402E+02 1.61750E+01 0.00000E+00
 -1       283 1.47402E+02 1.91250E+01 0.00000E+00
 -1       284 1.47402E+02 2.20750E+01 0.00000E+00
 -1       285 1.47402E+02 2.50250E+01 0.00000E+00
 -1       286 1.47402E+02 2.79750E+01 0.00000E+00
 -1       287 1.47402E+02 3.09250E+01 0.00000E+00
 -1       288 1.47402E+02 3.38250E+01 0.00000E+00
 -1       289 1.47402E+02 3.67750E+01 0.00000E+00
 -1       290 1.47402E+02 3.97250E+01 0.00000E+00
 -1       291 1.47402E+02 4.26750E+01 0.00000E+00
 -1       292 1.46526E+02 4.50385E+01 0.00000E+00
 -1       293 8.62676E+01 1.20423E+01 0.00000E+00
 -1       294 8.59426E+01 1.02256E+01 0.00000E+00
 -1       295 8.51579E+01 8.41400E+00 0.00000E+00
 -1       296 8.38003E+01 7.11005E+00 0.00000E+00
 -1       297 8.24747E+01 6.04892E+00 0.00000E+00
 -1       298 8.10256E+01 4.95851E+00 0.00000E+00
 -1       299 7.92055E+01 4.75231E+00 0.00000E+00
 -1       300 7.74564E+01 4.77905E+00 0.00000E+00
 -1       301 7.55751E+01 4.79975E+00 0.00000E+00
 -1       302 7.37676E+01 5.59272E+00 0.00000E+00
 -1       303 7.24202E+01 6.89779E+00 0.00000E+00
 -1       304 7.13662E+01 8.23359E+00 0.00000E+00
 -1       305 7.03827E+01 9.67471E+00 0.00000E+00
 -1       306 7.00334E+01 1.13594E+01 0.00000E+00
 -1       307 6.98025E+01 1.30158E+01 0.00000E+00
 -1       308 7.00806E+01 1.47068E+01 0.00000E+00
 -1       309 7.06220E+01 1.63196E+01 0.00000E+00
 -1       310 7.14020E+01 1.79442E+01 0.00000E+00
 -1       311 7.26566E+01 1.92820E+01 0.00000E+00
 -1       312 7.41649E+01 2.02095E+01 0.00000E+00
 -1       313 7.58147E+01 2.07874E+01 0.00000E+00
 -1       314 7.74769E+01 2.10856E+01 0.00000E+00
 -1       315 7.91990E+01 2.11044E+01 0.00000E+00
 -1       316 8.10164E+01 2.08139E+01 0.00000E+00
 -1       317 8.24914E+01 1.97988E+01 0.00000E+00
 -1       318 8.39743E+01 1.88029E+01 0.00000E+00
 -1       319 8.51088E+01 1.73284E+01 0.00000E+00
 -1       320 8.59351E+01 1.56605E+01 0.00000E+00
 -1       321 8.63188E+01 1.38463E+01 0.00000E+00
 -1       322 5.19600E+00 4.11500E+01 0.00000E+00
 -1       323 5.19600E+00 4.41000E+01 0.00000E+00
 -1       324 5.19600E+00 3.52750E+01 0.00000E+00
 -1       325 5.19600E+00 3.23250E+01 0.00000E+00
 -1       326 5.19600E+00 2.93750E+01 0.00000E+00
 -1       327 5.19600E+00 2.64250E+01 0.00000E+00
 -1       328 5.19600E+00 2.34750E+01 0.00000E+00
 -1       329 5.19600E+00 2.05250E+01 0.00000E+00
 -1       330 5.19600E+00 1.76250E+01 0.00000E+00
 -1       331 5.19600E+00 1.46750E+01 0.00000E+00
 -1       332 5.19600E+00 1.17250E+01 0.00000E+00
 -1       333 5.19600E+00 8.77500E+00 0.00000E+00
 -1       334 5.19600E+00 5.82500E+00 0.00000E+00
 -1       335 5.53500E+00 4.00625E+00 0.00000E+00
 -1       336 8.53500E+00 4.00625E+00 0.00000E+00
 -1       337 9.15000E+00 4.48040E+01 0.00000E+00
 -1       338 1.21500E+01 4.48040E+01 0.00000E+00
 -1       339 1.51500E+01 4.48040E+01 0.00000E+00
 -1       340 1.81500E+01 4.48040E+01 0.00000E+00
 -1       341 2.11500E+01 4.48040E+01 0.00000E+00
 -1       342 2.41500E+01 4.48040E+01 0.00000E+00
 -1       343 2.71500E+01 4.48040E+01 0.00000E+00
 -1       344 3.01500E+01 4.48040E+01 0.00000E+00
 -1       345 3.31500E+01 4.48040E+01 0.00000E+00
 -1       346 3.61500E+01 4.48040E+01 0.00000E+00
 -1       347 3.91500E+01 4.48040E+01 0.00000E+00
 -1       348 4.21500E+01 4.48040E+01 0.00000E+00
 -1       349 4.51500E+01 4.48040E+01 0.00000E+00
 -1       350 4.81500E+01 4.48040E+01 0.00000E+00
 -1       351 5.11500E+01 4.48040E+01 0.00000E+00
 -1       352 5.41500E+01 4.48040E+01 0.00000E+00
 -1       353 5.71500E+01 4.48040E+01 0.00000E+00
 -1       354 6.01500E+01 4.48040E+01 0.00000E+00
 -1       355 6.31500E+01 4.48040E+01 0.00000E+00
 -1       356 6.61500E+01 4.48040E+01 0.00000E+00
 -1       357 6.91500E+01 4.48040E+01 0.00000E+00
 -1       358 7.21500E+01 4.48040E+01 0.00000E+00
 -1       359 7.51500E+01 4.48040E+01 0.00000E+00
 -1       360 7.81500E+01 4.48040E+01 0.00000E+00
 -1       361 8.11500E+01 4.48040E+01 0.00000E+00
 -1       362 8.41500E+01 4.48040E+01 0.00000E+00
 -1       363 8.71500E+01 4.48040E+01 0.00000E+00
 -1       364 9.01500E+01 4.48040E+01 0.00000E+00
 -1       365 9.31500E+01 4.48040E+01 0.00000E+00
 -1       366 9.61500E+01 4.48040E+01 0.00000E+00
 -1       367 9.91500E+01 4.48040E+01 0.00000E+00
 -1       368 1.02150E+02 4.48040E+01 0.00000E+00
 -1       369 1.05150E+02 4.48040E+01 0.00000E+00
 -1       370 1.08150E+02 4.48040E+01 0.00000E+00
 -1       371 1.11150E+02 4.48040E+01 0.00000E+00
 -1       372 1.14150E+02 4.48040E+01 0.00000E+00
 -1       373 1.17150E+02 4.48040E+01 0.00000E+00
 -1       374 1.20150E+02 4.48040E+01 0.00000E+00
 -1       375 1.23150E+02 4.48040E+01 0.00000E+00
 -1       376 1.26150E+02 4.48040E+01 0.00000E+00
 -1       377 1.29150E+02 4.48040E+01 0.00000E+00
 -1       378 1.32150E+02 4.48040E+01 0.00000E+00
 -1       379 1.35150E+02 4.48040E+01 0.00000E+00
 -1       380 1.38150E+02 4.48040E+01 0.00000E+00
 -1       381 1.41150E+02 4.48040E+01 0.00000E+00
 -1       382 1.43838E+02 4.49212E+01 0.00000E+00
 -1       383 1.15350E+01 4.00625E+00 0.00000E+00
 -1       384 1.45350E+01 4.00625E+00 0.00000E+00
 -1       385 1.75350E+01 4.00625E+00 0.00000E+00
 -1       386 2.05350E+01 4.00625E+00 0.00000E+00
 -1       387 2.35350E+01 4.00625E+00 0.00000E+00
 -1       388 2.65350E+01 4.00625E+00 0.00000E+00
 -1       389 2.95350E+01 4.00625E+00 0.00000E+00
 -1       390 3.25350E+01 4.00625E+00 0.00000E+00
 -1       391 3.55350E+01 4.00625E+00 0.00000E+00
 -1       392 3.86850E+01 4.00625E+00 0.00000E+00
 -1       393 4.16850E+01 4.00625E+00 0.00000E+00
 -1       394 4.46850E+01 4.00625E+00 0.00000E+00
 -1       395 4.76850E+01 4.00625E+00 0.00000E+00
 -1       396 5.06850E+01 4.00625E+00 0.00000E+00
 -1       397 5.36850E+01 4.00625E+00 0.00000E+00
 -1       398 5.66850E+01 4.00625E+00 0.00000E+00
 -1       399 5.96850E+01 4.00625E+00 0.00000E+00
 -1       400 6.26850E+01 4.00625E+00 0.00000E+00
 -1       401 6.56850E+01 4.00625E+00 0.00000E+00
 -1       402 6.86850E+01 4.00625E+00 0.00000E+00
 -1       403 7.31490E+01 4.23776E+00 0.00000E+00
 -1       404 8.28990E+01 4.07018E+00 0.00000E+00
 -1       405 8.55990E+01 4.07018E+00 0.00000E+00
 -1       406 8.84490E+01 4.07018E+00 0.00000E+00
 -1       407 9.14490E+01 4.07018E+00 0.00000E+00
 -1       408 9.44490E+01 4.07018E+00 0.00000E+00
 -1       409 9.74490E+01 4.07018E+00 0.00000E+00
 -1       410 1.00449E+02 4.07018E+00 0.00000E+00
 -1       411 1.03449E+02 4.07018E+00 0.00000E+00
 -1       412 1.06449E+02 4.07018E+00 0.00000E+00
 -1       413 1.09449E+02 4.07018E+00 0.00000E+00
 -1       414 1.12599E+02 4.07018E+00 0.00000E+00
 -1       415 1.15599E+02 4.07018E+00 0.00000E+00
 -1       416 1.18599E+02 4.07018E+00 0.00000E+00
 -1       417 1.21599E+02 4.07018E+00 0.00000E+00
 -1       418 1.24599E+02 4.07018E+00 0.00000E+00
 -1       419 1.27599E+02 4.07018E+00 0.00000E+00
 -1       420 1.30599E+02 4.07018E+00 0.00000E+00
 -1       421 1.33599E+02 4.07018E+00 0.00000E+00
 -1       422 1.36599E+02 4.07018E+00 0.00000E+00
 -1       423 1.39599E+02 4.07018E+00 0.00000E+00
 -1       424 1.42599E+02 4.07018E+00 0.00000E+00
 -1       425 1.45001E+02 4.24759E+00 0.00000E+00
 -1       426 1.44804E+02 1.18000E+01 0.00000E+00
 -1       427 1.44804E+02 8.85000E+00 0.00000E+00
 -1       428 1.44902E+02 6.54880E+00 0.00000E+00
 -1       429 1.44804E+02 1.47000E+01 0.00000E+00
 -1       430 1.44804E+02 1.76500E+01 0.00000E+00
 -1       431 1.44804E+02 2.06000E+01 0.00000E+00
 -1       432 1.44804E+02 2.35500E+01 0.00000E+00
 -1       433 1.44804E+02 2.65000E+01 0.00000E+00
 -1       434 1.44804E+02 2.94500E+01 0.00000E+00
 -1       435 1.44804E+02 3.23500E+01 0.00000E+00
 -1       436 1.44804E+02 3.53000E+01 0.00000E+00
 -1       437 1.44804E+02 3.82500E+01 0.00000E+00
 -1       438 1.44804E+02 4.12000E+01 0.00000E+00
 -1       439 8.72527E+01 8.58238E+00 0.00000E+00
 -1       440 8.81478E+01 1.28917E+01 0.00000E+00
 -1       441 8.78228E+01 1.10750E+01 0.00000E+00
 -1       442 8.56091E+01 6.58548E+00 0.00000E+00
 -1       443 5.19600E+00 3.82125E+01 0.00000E+00
 -1       444 8.02615E+01 3.56746E+00 0.00000E+00
 -1       445 7.85124E+01 3.59420E+00 0.00000E+00
 -1       446 7.18016E+01 5.54282E+00 0.00000E+00
 -1       447 7.07476E+01 6.87863E+00 0.00000E+00
 -1       448 6.98039E+01 8.22350E+00 0.00000E+00
 -1       449 6.87748E+01 1.02199E+01 0.00000E+00
 -1       450 6.86342E+01 1.20086E+01 0.00000E+00
 -1       451 6.86625E+01 1.40716E+01 0.00000E+00
 -1       452 6.89636E+01 1.59790E+01 0.00000E+00
 -1       453 6.96924E+01 1.77655E+01 0.00000E+00
 -1       454 7.09005E+01 1.96717E+01 0.00000E+00
 -1       455 7.26879E+01 2.09212E+01 0.00000E+00
 -1       456 7.44505E+01 2.20381E+01 0.00000E+00
 -1       457 7.64021E+01 2.22948E+01 0.00000E+00
 -1       458 7.83219E+01 2.25587E+01 0.00000E+00
 -1       459 8.03652E+01 2.25700E+01 0.00000E+00
 -1       460 8.26788E+01 2.16501E+01 0.00000E+00
 -1       461 8.41617E+01 2.06543E+01 0.00000E+00
 -1       462 8.58697E+01 1.90874E+01 0.00000E+00
 -1       463 8.67585E+01 1.71071E+01 0.00000E+00
 -1       464 8.74771E+01 1.50389E+01 0.00000E+00
 -1       465 7.04490E+01 4.40532E+00 0.00000E+00
 -1       466 8.42970E+01 5.44194E+00 0.00000E+00
 -1       467 1.00350E+01 6.60425E+00 0.00000E+00
 -1       468 7.79400E+00 3.08500E+01 0.00000E+00
 -1       469 7.79400E+00 3.38000E+01 0.00000E+00
 -1       470 7.79400E+00 2.49500E+01 0.00000E+00
 -1       471 7.79400E+00 2.20000E+01 0.00000E+00
 -1       472 7.79400E+00 1.91000E+01 0.00000E+00
 -1       473 7.79400E+00 1.61500E+01 0.00000E+00
 -1       474 7.79400E+00 1.32000E+01 0.00000E+00
 -1       475 7.79400E+00 1.02500E+01 0.00000E+00
 -1       476 8.99490E+01 6.45558E+00 0.00000E+00
 -1       477 1.30350E+01 6.60425E+00 0.00000E+00
 -1       478 1.06500E+01 4.22060E+01 0.00000E+00
 -1       479 1.36500E+01 4.22060E+01 0.00000E+00
 -1       480 1.66500E+01 4.22060E+01 0.00000E+00
 -1       481 1.96500E+01 4.22060E+01 0.00000E+00
 -1       482 2.26500E+01 4.22060E+01 0.00000E+00
 -1       483 2.56500E+01 4.22060E+01 0.00000E+00
 -1       484 2.86500E+01 4.22060E+01 0.00000E+00
 -1       485 3.16500E+01 4.22060E+01 0.00000E+00
 -1       486 3.46500E+01 4.22060E+01 0.00000E+00
 -1       487 3.76500E+01 4.22060E+01 0.00000E+00
 -1       488 4.06500E+01 4.22060E+01 0.00000E+00
 -1       489 4.36500E+01 4.22060E+01 0.00000E+00
 -1       490 4.66500E+01 4.22060E+01 0.00000E+00
 -1       491 4.96500E+01 4.22060E+01 0.00000E+00
 -1       492 5.26500E+01 4.22060E+01 0.00000E+00
 -1       493 5.56500E+01 4.22060E+01 0.00000E+00
 -1       494 5.86500E+01 4.22060E+01 0.00000E+00
 -1       495 6.16500E+01 4.22060E+01 0.00000E+00
 -1       496 6.46500E+01 4.22060E+01 0.00000E+00
 -1       497 6.76500E+01 4.22060E+01 0.00000E+00
 -1       498 7.06500E+01 4.22060E+01 0.00000E+00
 -1       499 7.36500E+01 4.22060E+01 0.00000E+00
 -1       500 7.66500E+01 4.22060E+01 0.00000E+00
 -1       501 7.96500E+01 4.22060E+01 0.00000E+00
 -1       502 8.26500E+01 4.22060E+01 0.00000E+00
 -1       503 8.56500E+01 4.22060E+01 0.00000E+00
 -1       504 8.86500E+01 4.22060E+01 0.00000E+00
 -1       505 9.16500E+01 4.22060E+01 0.00000E+00
 -1       506 9.46500E+01 4.22060E+01 0.00000E+00
 -1       507 9.76500E+01 4.22060E+01 0.00000E+00
 -1       508 1.00650E+02 4.22060E+01 0.00000E+00
 -1       509 1.03650E+02 4.22060E+01 0.00000E+00
 -1       510 1.06650E+02 4.22060E+01 0.00000E+00
 -1       511 1.09650E+02 4.22060E+01 0.00000E+00
 -1       512 1.12650E+02 4.22060E+01 0.00000E+00
 -1       513 1.15650E+02 4.22060E+01 0.00000E+00
 -1       514 1.18650E+02 4.22060E+01 0.00000E+00
 -1       515 1.21650E+02 4.22060E+01 0.00000E+00
 -1       516 1.24650E+02 4.22060E+01 0.00000E+00
 -1       517 1.27650E+02 4.22060E+01 0.00000E+00
 -1       518 1.30650E+02 4.22060E+01 0.00000E+00
 -1       519 1.33650E+02 4.22060E+01 0.00000E+00
 -1       520 1.36650E+02 4.22060E+01 0.00000E+00
 -1       521 1.39650E+02 4.22060E+01 0.00000E+00
 -1       522 1.90350E+01 6.60425E+00 0.00000E+00
 -1       523 2.20350E+01 6.60425E+00 0.00000E+00
 -1       524 2.50350E+01 6.60425E+00 0.00000E+00
 -1       525 2.80350E+01 6.60425E+00 0.00000E+00
 -1       526 3.10350E+01 6.60425E+00 0.00000E+00
 -1       527 3.40350E+01 6.60425E+00 0.00000E+00
 -1       528 3.71850E+01 6.60425E+00 0.00000E+00
 -1       529 4.01850E+01 6.60425E+00 0.00000E+00
 -1       530 4.31850E+01 6.60425E+00 0.00000E+00
 -1       531 4.61850E+01 6.60425E+00 0.00000E+00
 -1       532 4.91850E+01 6.60425E+00 0.00000E+00
 -1       533 5.21850E+01 6.60425E+00 0.00000E+00
 -1       534 5.51850E+01 6.60425E+00 0.00000E+00
 -1       535 5.81850E+01 6.60425E+00 0.00000E+00
 -1       536 6.11850E+01 6.60425E+00 0.00000E+00
 -1       537 6.41850E+01 6.60425E+00 0.00000E+00
 -1       538 6.71850E+01 6.60425E+00 0.00000E+00
 -1       539 8.78845E+01 6.38748E+00 0.00000E+00
 -1       540 9.29490E+01 6.45558E+00 0.00000E+00
 -1       541 9.59490E+01 6.45558E+00 0.00000E+00
 -1       542 9.89490E+01 6.45558E+00 0.00000E+00
 -1       543 1.01949E+02 6.45558E+00 0.00000E+00
 -1       544 1.04949E+02 6.45558E+00 0.00000E+00
 -1       545 1.07949E+02 6.45558E+00 0.00000E+00
 -1       546 1.11099E+02 6.45558E+00 0.00000E+00
 -1       547 1.14099E+02 6.45558E+00 0.00000E+00
 -1       548 1.17099E+02 6.45558E+00 0.00000E+00
 -1       549 1.20099E+02 6.45558E+00 0.00000E+00
 -1       550 1.23099E+02 6.45558E+00 0.00000E+00
 -1       551 1.26099E+02 6.45558E+00 0.00000E+00
 -1       552 1.29099E+02 6.45558E+00 0.00000E+00
 -1       553 1.32099E+02 6.45558E+00 0.00000E+00
 -1       554 1.35099E+02 6.45558E+00 0.00000E+00
 -1       555 1.38099E+02 6.45558E+00 0.00000E+00
 -1       556 1.41099E+02 6.45558E+00 0.00000E+00
 -1       557 1.42206E+02 1.61750E+01 0.00000E+00
 -1       558 1.42206E+02 1.91250E+01 0.00000E+00
 -1       559 1.42206E+02 1.03250E+01 0.00000E+00
 -1       560 1.42206E+02 1.32500E+01 0.00000E+00
 -1       561 1.42206E+02 2.20750E+01 0.00000E+00
 -1       562 1.42206E+02 2.50250E+01 0.00000E+00
 -1       563 1.42206E+02 2.79750E+01 0.00000E+00
 -1       564 1.42206E+02 3.08750E+01 0.00000E+00
 -1       565 1.42206E+02 3.38250E+01 0.00000E+00
 -1       566 1.42206E+02 3.67750E+01 0.00000E+00
 -1       567 1.42206E+02 3.97250E+01 0.00000E+00
 -1       568 8.92097E+01 9.44634E+00 0.00000E+00
 -1       569 8.93434E+01 1.44436E+01 0.00000E+00
 -1       570 1.60350E+01 6.60425E+00 0.00000E+00
 -1       571 8.95086E+01 1.17109E+01 0.00000E+00
 -1       572 8.86249E+01 1.65117E+01 0.00000E+00
 -1       573 7.92300E+00 4.16780E+01 0.00000E+00
 -1       574 8.22694E+01 2.39898E+01 0.00000E+00
 -1       575 7.79400E+00 2.79000E+01 0.00000E+00
 -1       576 6.88718E+01 6.56586E+00 0.00000E+00
 -1       577 6.78428E+01 8.56223E+00 0.00000E+00
 -1       578 6.69947E+01 1.09798E+01 0.00000E+00
 -1       579 6.70230E+01 1.30429E+01 0.00000E+00
 -1       580 6.72845E+01 1.52666E+01 0.00000E+00
 -1       581 6.78176E+01 1.74885E+01 0.00000E+00
 -1       582 6.88478E+01 1.96367E+01 0.00000E+00
 -1       583 7.06195E+01 2.19768E+01 0.00000E+00