    1C
    1UUSER                                                              
    1UDATE              27.october.2022                                 
    1UTIME              00:56:51                                        
    1UHOST                                                              
    1UPGM               CalculiX                                        
    1UVERSION           Version 2.17                             
    1UCOMPILETIME       Thu Jul 23 21:43:50 CEST 2020                    
    1UDIR                                                               
    1UDBN                                                               
    1UMAT    1SOLIDMATERIAL                                             
    2C                          4316                                     1
 -1         1 4.32706E+01 2.46636E+01 0.00000E+00
 -1         2 5.20901E+01 1.79042E+01 0.00000E+00
 -1         3 1.50000E+02 0.00000E+00 0.00000E+00
 -1         4 1.50000E+02 5.00000E+01 0.00000E+00
 -1         5 0.00000E+00 0.00000E+00 0.00000E+00
 -1         6 0.00000E+00 5.00000E+01 0.00000E+00
 -1         7 0.00000E+00 4.70500E+01 0.00000E+00
 -1         8 0.00000E+00 4.41000E+01 0.00000E+00
 -1         9 0.00000E+00 4.11500E+01 0.00000E+00
 -1        10 0.00000E+00 3.82000E+01 0.00000E+00
 -1        11 0.00000E+00 3.52500E+01 0.00000E+00
 -1        12 0.00000E+00 3.23500E+01 0.00000E+00
 -1        13 0.00000E+00 2.94000E+01 0.00000E+00
 -1        14 0.00000E+00 2.64500E+01 0.00000E+00
 -1        15 0.00000E+00 2.35000E+01 0.00000E+00
 -1        16 0.00000E+00 2.05500E+01 0.00000E+00
 -1        17 0.00000E+00 1.76000E+01 0.00000E+00
 -1        18 0.00000E+00 1.47000E+01 0.00000E+00
 -1        19 0.00000E+00 1.17500E+01 0.00000E+00
 -1        20 0.00000E+00 8.80000E+00 0.00000E+00
 -1        21 0.00000E+00 5.85000E+00 0.00000E+00
 -1        22 0.00000E+00 2.90000E+00 0.00000E+00
 -1        23 3.15000E+00 5.00000E+01 0.00000E+00
 -1        24 6.15000E+00 5.00000E+01 0.00000E+00
 -1        25 9.15000E+00 5.00000E+01 0.00000E+00
 -1        26 1.21500E+01 5.00000E+01 0.00000E+00
 -1        27 1.51500E+01 5.00000E+01 0.00000E+00
 -1        28 1.81500E+01 5.00000E+01 0.00000E+00
 -1        29 2.11500E+01 5.00000E+01 0.00000E+00
 -1        30 2.41500E+01 5.00000E+01 0.00000E+00
 -1        31 2.71500E+01 5.00000E+01 0.00000E+00
 -1        32 3.01500E+01 5.00000E+01 0.00000E+00
 -1        33 3.31500E+01 5.00000E+01 0.00000E+00
 -1        34 3.61500E+01 5.00000E+01 0.00000E+00
 -1        35 3.91500E+01 5.00000E+01 0.00000E+00
 -1        36 4.21500E+01 5.00000E+01 0.00000E+00
 -1        37 4.51500E+01 5.00000E+01 0.00000E+00
 -1        38 4.81500E+01 5.00000E+01 0.00000E+00
 -1        39 5.11500E+01 5.00000E+01 0.00000E+00
 -1        40 5.41500E+01 5.00000E+01 0.00000E+00
 -1        41 5.71500E+01 5.00000E+01 0.00000E+00
 -1        42 6.01500E+01 5.00000E+01 0.00000E+00
 -1        43 6.31500E+01 5.00000E+01 0.00000E+00
 -1        44 6.61500E+01 5.00000E+01 0.00000E+00
 -1        45 6.91500E+01 5.00000E+01 0.00000E+00
 -1        46 7.21500E+01 5.00000E+01 0.00000E+00
 -1        47 7.51500E+01 5.00000E+01 0.00000E+00
 -1        48 7.81500E+01 5.00000E+01 0.00000E+00
 -1        49 8.11500E+01 5.00000E+01 0.00000E+00
 -1        50 8.41500E+01 5.00000E+01 0.00000E+00
 -1        51 8.71500E+01 5.00000E+01 0.00000E+00
 -1        52 9.01500E+01 5.00000E+01 0.00000E+00
 -1        53 9.31500E+01 5.00000E+01 0.00000E+00
 -1        54 9.61500E+01 5.00000E+01 0.00000E+00
 -1        55 9.91500E+01 5.00000E+01 0.00000E+00
 -1        56 1.02150E+02 5.00000E+01 0.00000E+00
 -1        57 1.05150E+02 5.00000E+01 0.00000E+00
 -1        58 1.08150E+02 5.00000E+01 0.00000E+00
 -1        59 1.11150E+02 5.00000E+01 0.00000E+00
 -1        60 1.14150E+02 5.00000E+01 0.00000E+00
 -1        61 1.17150E+02 5.00000E+01 0.00000E+00
 -1        62 1.20150E+02 5.00000E+01 0.00000E+00
 -1        63 1.23150E+02 5.00000E+01 0.00000E+00
 -1        64 1.26150E+02 5.00000E+01 0.00000E+00
 -1        65 1.29150E+02 5.00000E+01 0.00000E+00
 -1        66 1.32150E+02 5.00000E+01 0.00000E+00
 -1        67 1.35150E+02 5.00000E+01 0.00000E+00
 -1        68 1.38150E+02 5.00000E+01 0.00000E+00
 -1        69 1.41150E+02 5.00000E+01 0.00000E+00
 -1        70 1.44150E+02 5.00000E+01 0.00000E+00
 -1        71 1.47150E+02 5.00000E+01 0.00000E+00
 -1        72 3.15000E+00 0.00000E+00 0.00000E+00
 -1        73 6.15000E+00 0.00000E+00 0.00000E+00
 -1        74 9.15000E+00 0.00000E+00 0.00000E+00
 -1        75 1.21500E+01 0.00000E+00 0.00000E+00
 -1        76 1.51500E+01 0.00000E+00 0.00000E+00
 -1        77 1.81500E+01 0.00000E+00 0.00000E+00
 -1        78 2.11500E+01 0.00000E+00 0.00000E+00
 -1        79 2.41500E+01 0.00000E+00 0.00000E+00
 -1        80 2.71500E+01 0.00000E+00 0.00000E+00
 -1        81 3.01500E+01 0.00000E+00 0.00000E+00
 -1        82 3.31500E+01 0.00000E+00 0.00000E+00
 -1        83 3.61500E+01 0.00000E+00 0.00000E+00
 -1        84 3.91500E+01 0.00000E+00 0.00000E+00
 -1        85 4.21500E+01 0.00000E+00 0.00000E+00
 -1        86 4.51500E+01 0.00000E+00 0.00000E+00
 -1        87 4.80000E+01 0.00000E+00 0.00000E+00
 -1        88 5.08500E+01 0.00000E+00 0.00000E+00
 -1        89 5.38500E+01 0.00000E+00 0.00000E+00
 -1        90 5.68500E+01 0.00000E+00 0.00000E+00
 -1        91 5.98500E+01 0.00000E+00 0.00000E+00
 -1        92 6.28500E+01 0.00000E+00 0.00000E+00
 -1        93 6.58500E+01 0.00000E+00 0.00000E+00
 -1        94 6.88500E+01 0.00000E+00 0.00000E+00
 -1        95 7.18500E+01 0.00000E+00 0.00000E+00
 -1        96 7.48500E+01 0.00000E+00 0.00000E+00
 -1        97 7.78500E+01 0.00000E+00 0.00000E+00
 -1        98 8.08500E+01 0.00000E+00 0.00000E+00
 -1        99 8.38500E+01 0.00000E+00 0.00000E+00
 -1       100 8.68500E+01 0.00000E+00 0.00000E+00
 -1       101 9.00000E+01 0.00000E+00 0.00000E+00
 -1       102 9.30000E+01 0.00000E+00 0.00000E+00
 -1       103 9.60000E+01 0.00000E+00 0.00000E+00
 -1       104 9.90000E+01 0.00000E+00 0.00000E+00
 -1       105 1.02000E+02 0.00000E+00 0.00000E+00
 -1       106 1.05000E+02 0.00000E+00 0.00000E+00
 -1       107 1.08000E+02 0.00000E+00 0.00000E+00
 -1       108 1.11000E+02 0.00000E+00 0.00000E+00
 -1       109 1.14000E+02 0.00000E+00 0.00000E+00
 -1       110 1.17000E+02 0.00000E+00 0.00000E+00
 -1       111 1.20000E+02 0.00000E+00 0.00000E+00
 -1       112 1.23000E+02 0.00000E+00 0.00000E+00
 -1       113 1.26000E+02 0.00000E+00 0.00000E+00
 -1       114 1.29000E+02 0.00000E+00 0.00000E+00
 -1       115 1.32000E+02 0.00000E+00 0.00000E+00
 -1       116 1.35000E+02 0.00000E+00 0.00000E+00
 -1       117 1.38000E+02 0.00000E+00 0.00000E+00
 -1       118 1.41000E+02 0.00000E+00 0.00000E+00
 -1       119 1.44000E+02 0.00000E+00 0.00000E+00
 -1       120 1.47000E+02 0.00000E+00 0.00000E+00
 -1       121 1.50000E+02 2.95000E+00 0.00000E+00
 -1       122 1.50000E+02 5.90000E+00 0.00000E+00
 -1       123 1.50000E+02 8.85000E+00 0.00000E+00
 -1       124 1.50000E+02 1.18000E+01 0.00000E+00
 -1       125 1.50000E+02 1.47500E+01 0.00000E+00
 -1       126 1.50000E+02 1.76500E+01 0.00000E+00
 -1       127 1.50000E+02 2.06000E+01 0.00000E+00
 -1       128 1.50000E+02 2.35500E+01 0.00000E+00
 -1       129 1.50000E+02 2.65000E+01 0.00000E+00
 -1       130 1.50000E+02 2.94500E+01 0.00000E+00
 -1       131 1.50000E+02 3.24000E+01 0.00000E+00
 -1       132 1.50000E+02 3.53000E+01 0.00000E+00
 -1       133 1.50000E+02 3.82500E+01 0.00000E+00
 -1       134 1.50000E+02 4.12000E+01 0.00000E+00
 -1       135 1.50000E+02 4.41500E+01 0.00000E+00
 -1       136 1.50000E+02 4.71000E+01 0.00000E+00
 -1       137 5.19191E+01 1.63663E+01 0.00000E+00
 -1       138 5.14463E+01 1.49719E+01 0.00000E+00
 -1       139 5.07237E+01 1.37494E+01 0.00000E+00
 -1       140 4.97038E+01 1.26398E+01 0.00000E+00
 -1       141 4.85471E+01 1.18174E+01 0.00000E+00
 -1       142 4.71150E+01 1.12035E+01 0.00000E+00
 -1       143 4.55314E+01 1.09181E+01 0.00000E+00
 -1       144 4.41262E+01 1.09709E+01 0.00000E+00
 -1       145 4.26238E+01 1.13531E+01 0.00000E+00
 -1       146 4.12899E+01 1.20256E+01 0.00000E+00
 -1       147 4.02016E+01 1.28940E+01 0.00000E+00
 -1       148 3.92557E+01 1.40364E+01 0.00000E+00
 -1       149 3.85601E+01 1.53826E+01 0.00000E+00
 -1       150 3.81666E+01 1.68720E+01 0.00000E+00
 -1       151 3.81001E+01 1.82787E+01 0.00000E+00
 -1       152 3.83185E+01 1.96775E+01 0.00000E+00
 -1       153 3.88175E+01 2.10113E+01 0.00000E+00
 -1       154 3.95799E+01 2.22214E+01 0.00000E+00
 -1       155 4.06931E+01 2.33509E+01 0.00000E+00
 -1       156 4.18698E+01 2.41195E+01 0.00000E+00
 -1       157 4.46587E+01 2.48909E+01 0.00000E+00
 -1       158 4.61697E+01 2.48205E+01 0.00000E+00
 -1       159 4.75477E+01 2.44586E+01 0.00000E+00
 -1       160 4.88044E+01 2.38375E+01 0.00000E+00
 -1       161 4.99289E+01 2.29625E+01 0.00000E+00
 -1       162 5.08351E+01 2.19036E+01 0.00000E+00
 -1       163 5.15159E+01 2.06808E+01 0.00000E+00
 -1       164 5.19491E+01 1.93024E+01 0.00000E+00
 -1       165 2.59800E+00 4.55750E+01 0.00000E+00
 -1       166 2.59800E+00 4.26250E+01 0.00000E+00
 -1       167 2.59800E+00 3.96750E+01 0.00000E+00
 -1       168 2.59800E+00 3.67250E+01 0.00000E+00
 -1       169 2.59800E+00 3.38250E+01 0.00000E+00
 -1       170 2.59800E+00 3.08750E+01 0.00000E+00
 -1       171 2.59800E+00 2.79250E+01 0.00000E+00
 -1       172 2.59800E+00 2.49750E+01 0.00000E+00
 -1       173 2.59800E+00 2.20250E+01 0.00000E+00
 -1       174 2.59800E+00 1.90750E+01 0.00000E+00
 -1       175 2.59800E+00 1.61750E+01 0.00000E+00
 -1       176 2.59800E+00 1.32250E+01 0.00000E+00
 -1       177 2.59800E+00 1.02750E+01 0.00000E+00
 -1       178 2.59800E+00 7.32500E+00 0.00000E+00
 -1       179 2.59800E+00 4.37500E+00 0.00000E+00
 -1       180 2.87400E+00 2.18750E+00 0.00000E+00
 -1       181 4.65000E+00 4.74020E+01 0.00000E+00
 -1       182 7.65000E+00 4.74020E+01 0.00000E+00
 -1       183 1.06500E+01 4.74020E+01 0.00000E+00
 -1       184 1.36500E+01 4.74020E+01 0.00000E+00
 -1       185 1.66500E+01 4.74020E+01 0.00000E+00
 -1       186 1.96500E+01 4.74020E+01 0.00000E+00
 -1       187 2.26500E+01 4.74020E+01 0.00000E+00
 -1       188 2.56500E+01 4.74020E+01 0.00000E+00
 -1       189 2.86500E+01 4.74020E+01 0.00000E+00
 -1       190 3.16500E+01 4.74020E+01 0.00000E+00
 -1       191 3.46500E+01 4.74020E+01 0.00000E+00
 -1       192 3.76500E+01 4.74020E+01 0.00000E+00
 -1       193 4.06500E+01 4.74020E+01 0.00000E+00
 -1       194 4.36500E+01 4.74020E+01 0.00000E+00
 -1       195 4.66500E+01 4.74020E+01 0.00000E+00
 -1       196 4.96500E+01 4.74020E+01 0.00000E+00
 -1       197 5.26500E+01 4.74020E+01 0.00000E+00
 -1       198 5.56500E+01 4.74020E+01 0.00000E+00
 -1       199 5.86500E+01 4.74020E+01 0.00000E+00
 -1       200 6.16500E+01 4.74020E+01 0.00000E+00
 -1       201 6.46500E+01 4.74020E+01 0.00000E+00
 -1       202 6.76500E+01 4.74020E+01 0.00000E+00
 -1       203 7.06500E+01 4.74020E+01 0.00000E+00
 -1       204 7.36500E+01 4.74020E+01 0.00000E+00
 -1       205 7.66500E+01 4.74020E+01 0.00000E+00
 -1       206 7.96500E+01 4.74020E+01 0.00000E+00
 -1       207 8.26500E+01 4.74020E+01 0.00000E+00
 -1       208 8.56500E+01 4.74020E+01 0.00000E+00
 -1       209 8.86500E+01 4.74020E+01 0.00000E+00
 -1       210 9.16500E+01 4.74020E+01 0.00000E+00
 -1       211 9.46500E+01 4.74020E+01 0.00000E+00
 -1       212 9.76500E+01 4.74020E+01 0.00000E+00
 -1       213 1.00650E+02 4.74020E+01 0.00000E+00
 -1       214 1.03650E+02 4.74020E+01 0.00000E+00
 -1       215 1.06650E+02 4.74020E+01 0.00000E+00
 -1       216 1.09650E+02 4.74020E+01 0.00000E+00
 -1       217 1.12650E+02 4.74020E+01 0.00000E+00
 -1       218 1.15650E+02 4.74020E+01 0.00000E+00
 -1       219 1.18650E+02 4.74020E+01 0.00000E+00
 -1       220 1.21650E+02 4.74020E+01 0.00000E+00
 -1       221 1.24650E+02 4.74020E+01 0.00000E+00
 -1       222 1.27650E+02 4.74020E+01 0.00000E+00
 -1       223 1.30650E+02 4.74020E+01 0.00000E+00
 -1       224 1.33650E+02 4.74020E+01 0.00000E+00
 -1       225 1.36650E+02 4.74020E+01 0.00000E+00
 -1       226 1.39650E+02 4.74020E+01 0.00000E+00
 -1       227 1.42650E+02 4.74020E+01 0.00000E+00
 -1       228 1.45650E+02 4.74020E+01 0.00000E+00
 -1       229 5.87400E+00 2.18750E+00 0.00000E+00
 -1       230 8.87400E+00 2.18750E+00 0.00000E+00
 -1       231 1.18740E+01 2.18750E+00 0.00000E+00
 -1       232 1.48740E+01 2.18750E+00 0.00000E+00
 -1       233 1.78740E+01 2.18750E+00 0.00000E+00
 -1       234 2.08740E+01 2.18750E+00 0.00000E+00
 -1       235 2.38740E+01 2.18750E+00 0.00000E+00
 -1       236 2.68740E+01 2.18750E+00 0.00000E+00
 -1       237 2.98740E+01 2.18750E+00 0.00000E+00
 -1       238 3.28740E+01 2.18750E+00 0.00000E+00
 -1       239 3.58740E+01 2.18750E+00 0.00000E+00
 -1       240 3.88740E+01 2.18750E+00 0.00000E+00
 -1       241 4.18740E+01 2.18750E+00 0.00000E+00
 -1       242 4.48740E+01 2.18750E+00 0.00000E+00
 -1       243 4.77240E+01 2.18750E+00 0.00000E+00
 -1       244 5.05740E+01 2.18750E+00 0.00000E+00
 -1       245 5.35740E+01 2.18750E+00 0.00000E+00
 -1       246 5.65740E+01 2.18750E+00 0.00000E+00
 -1       247 5.95740E+01 2.18750E+00 0.00000E+00
 -1       248 6.25740E+01 2.18750E+00 0.00000E+00
 -1       249 6.55740E+01 2.18750E+00 0.00000E+00
 -1       250 6.85740E+01 2.18750E+00 0.00000E+00
 -1       251 7.15740E+01 2.18750E+00 0.00000E+00
 -1       252 7.45740E+01 2.18750E+00 0.00000E+00
 -1       253 7.75740E+01 2.18750E+00 0.00000E+00
 -1       254 8.05740E+01 2.18750E+00 0.00000E+00
 -1       255 8.35740E+01 2.18750E+00 0.00000E+00
 -1       256 8.65740E+01 2.18750E+00 0.00000E+00
 -1       257 8.97240E+01 2.18750E+00 0.00000E+00
 -1       258 9.27240E+01 2.18750E+00 0.00000E+00
 -1       259 9.57240E+01 2.18750E+00 0.00000E+00
 -1       260 9.87240E+01 2.18750E+00 0.00000E+00
 -1       261 1.01724E+02 2.18750E+00 0.00000E+00
 -1       262 1.04724E+02 2.18750E+00 0.00000E+00
 -1       263 1.07724E+02 2.18750E+00 0.00000E+00
 -1       264 1.10724E+02 2.18750E+00 0.00000E+00
 -1       265 1.13724E+02 2.18750E+00 0.00000E+00
 -1       266 1.16724E+02 2.18750E+00 0.00000E+00
 -1       267 1.19724E+02 2.18750E+00 0.00000E+00
 -1       268 1.22724E+02 2.18750E+00 0.00000E+00
 -1       269 1.25724E+02 2.18750E+00 0.00000E+00
 -1       270 1.28724E+02 2.18750E+00 0.00000E+00
 -1       271 1.31724E+02 2.18750E+00 0.00000E+00
 -1       272 1.34724E+02 2.18750E+00 0.00000E+00
 -1       273 1.37724E+02 2.18750E+00 0.00000E+00
 -1       274 1.40724E+02 2.18750E+00 0.00000E+00
 -1       275 1.43724E+02 2.18750E+00 0.00000E+00
 -1       276 1.46724E+02 2.18750E+00 0.00000E+00
 -1       277 1.47402E+02 4.42500E+00 0.00000E+00
 -1       278 1.47402E+02 7.37500E+00 0.00000E+00
 -1       279 1.47402E+02 1.03250E+01 0.00000E+00
 -1       280 1.47402E+02 1.32750E+01 0.00000E+00
 -1       281 1.47402E+02 1.61750E+01 0.00000E+00
 -1       282 1.47402E+02 1.91250E+01 0.00000E+00
 -1       283 1.47402E+02 2.20750E+01 0.00000E+00
 -1       284 1.47402E+02 2.50250E+01 0.00000E+00
 -1       285 1.47402E+02 2.79750E+01 0.00000E+00
 -1       286 1.47402E+02 3.09250E+01 0.00000E+00
 -1       287 1.47402E+02 3.38250E+01 0.00000E+00
 -1       288 1.47402E+02 3.67750E+01 0.00000E+00
 -1       289 1.47402E+02 3.97250E+01 0.00000E+00
 -1       290 1.47402E+02 4.26750E+01 0.00000E+00
 -1       291 1.46526E+02 4.50385E+01 0.00000E+00
 -1       292 5.33761E+01 1.69828E+01 0.00000E+00
 -1       293 5.29103E+01 1.52529E+01 0.00000E+00
 -1       294 5.21287E+01 1.37437E+01 0.00000E+00
 -1       295 5.12297E+01 1.22607E+01 0.00000E+00
 -1       296 4.98280E+01 1.12405E+01 0.00000E+00
 -1       297 4.84408E+01 1.00881E+01 0.00000E+00
 -1       298 4.65976E+01 9.53780E+00 0.00000E+00
 -1       299 4.47833E+01 9.73298E+00 0.00000E+00
 -1       300 4.30348E+01 9.82463E+00 0.00000E+00
 -1       301 4.13733E+01 1.05319E+01 0.00000E+00
 -1       302 3.99373E+01 1.14466E+01 0.00000E+00
 -1       303 3.87302E+01 1.26386E+01 0.00000E+00
 -1       304 3.76075E+01 1.40376E+01 0.00000E+00
 -1       305 3.69482E+01 1.57535E+01 0.00000E+00
 -1       306 3.69224E+01 1.75181E+01 0.00000E+00
 -1       307 3.70114E+01 1.91651E+01 0.00000E+00
 -1       308 3.74324E+01 2.07692E+01 0.00000E+00
 -1       309 3.81729E+01 2.22627E+01 0.00000E+00
 -1       310 3.91537E+01 2.37548E+01 0.00000E+00
 -1       311 4.06184E+01 2.47502E+01 0.00000E+00
 -1       312 4.20705E+01 2.56779E+01 0.00000E+00
 -1       313 4.37688E+01 2.59737E+01 0.00000E+00
 -1       314 4.54746E+01 2.61505E+01 0.00000E+00
 -1       315 4.71667E+01 2.58122E+01 0.00000E+00
 -1       316 4.87504E+01 2.53101E+01 0.00000E+00
 -1       317 5.01112E+01 2.43569E+01 0.00000E+00
 -1       318 5.13031E+01 2.32214E+01 0.00000E+00
 -1       319 5.22348E+01 2.18820E+01 0.00000E+00
 -1       320 5.29691E+01 2.03802E+01 0.00000E+00
 -1       321 5.32259E+01 1.87250E+01 0.00000E+00
 -1       322 5.19600E+00 4.11500E+01 0.00000E+00
 -1       323 5.19600E+00 4.41000E+01 0.00000E+00
 -1       324 5.19600E+00 3.52750E+01 0.00000E+00
 -1       325 5.19600E+00 3.23250E+01 0.00000E+00
 -1       326 5.19600E+00 2.93750E+01 0.00000E+00
 -1       327 5.19600E+00 2.64250E+01 0.00000E+00
 -1       328 5.19600E+00 2.34750E+01 0.00000E+00
 -1       329 5.19600E+00 2.05250E+01 0.00000E+00
 -1       330 5.19600E+00 1.76250E+01 0.00000E+00
 -1       331 5.19600E+00 1.46750E+01 0.00000E+00
 -1       332 5.19600E+00 1.17250E+01 0.00000E+00
 -1       333 5.19600E+00 8.77500E+00 0.00000E+00
 -1       334 5.19600E+00 5.82500E+00 0.00000E+00
 -1       335 5.53500E+00 4.00625E+00 0.00000E+00
 -1       336 8.53500E+00 4.00625E+00 0.00000E+00
 -1       337 9.15000E+00 4.48040E+01 0.00000E+00
 -1       338 1.21500E+01 4.48040E+01 0.00000E+00
 -1       339 1.51500E+01 4.48040E+01 0.00000E+00
 -1       340 1.81500E+01 4.48040E+01 0.00000E+00
 -1       341 2.11500E+01 4.48040E+01 0.00000E+00
 -1       342 2.41500E+01 4.48040E+01 0.00000E+00
 -1       343 2.71500E+01 4.48040E+01 0.00000E+00
 -1       344 3.01500E+01 4.48040E+01 0.00000E+00
 -1       345 3.31500E+01 4.48040E+01 0.00000E+00
 -1       346 3.61500E+01 4.48040E+01 0.00000E+00
 -1       347 3.91500E+01 4.48040E+01 0.00000E+00
 -1       348 4.21500E+01 4.48040E+01 0.00000E+00
 -1       349 4.51500E+01 4.48040E+01 0.00000E+00
 -1       350 4.81500E+01 4.48040E+01 0.00000E+00
 -1       351 5.11500E+01 4.48040E+01 0.00000E+00
 -1       352 5.41500E+01 4.48040E+01 0.00000E+00
 -1       353 5.71500E+01 4.48040E+01 0.00000E+00
 -1       354 6.01500E+01 4.48040E+01 0.00000E+00
 -1       355 6.31500E+01 4.48040E+01 0.00000E+00
 -1       356 6.61500E+01 4.48040E+01 0.00000E+00
 -1       357 6.91500E+01 4.48040E+01 0.00000E+00
 -1       358 7.21500E+01 4.48040E+01 0.00000E+00
 -1       359 7.51500E+01 4.48040E+01 0.00000E+00
 -1       360 7.81500E+01 4.48040E+01 0.00000E+00
 -1       361 8.11500E+01 4.48040E+01 0.00000E+00
 -1       362 8.41500E+01 4.48040E+01 0.00000E+00
 -1       363 8.71500E+01 4.48040E+01 0.00000E+00
 -1       364 9.01500E+01 4.48040E+01 0.00000E+00
 -1       365 9.31500E+01 4.48040E+01 0.00000E+00
 -1       366 9.61500E+01 4.48040E+01 0.00000E+00
 -1       367 9.91500E+01 4.48040E+01 0.00000E+00
 -1       368 1.02150E+02 4.48040E+01 0.00000E+00
 -1       369 1.05150E+02 4.48040E+01 0.00000E+00
 -1       370 1.08150E+02 4.48040E+01 0.00000E+00
 -1       371 1.11150E+02 4.48040E+01 0.00000E+00
 -1       372 1.14150E+02 4.48040E+01 0.00000E+00
 -1       373 1.17150E+02 4.48040E+01 0.00000E+00
 -1       374 1.20150E+02 4.48040E+01 0.00000E+00
 -1       375 1.23150E+02 4.48040E+01 0.00000E+00
 -1       376 1.26150E+02 4.48040E+01 0.00000E+00
 -1       377 1.29150E+02 4.48040E+01 0.00000E+00
 -1       378 1.32150E+02 4.48040E+01 0.00000E+00
 -1       379 1.35150E+02 4.48040E+01 0.00000E+00
 -1       380 1.38150E+02 4.48040E+01 0.00000E+00
 -1       381 1.41150E+02 4.48040E+01 0.00000E+00
 -1       382 1.43838E+02 4.49212E+01 0.00000E+00
 -1       383 1.15350E+01 4.00625E+00 0.00000E+00
 -1       384 1.45350E+01 4.00625E+00 0.00000E+00
 -1       385 1.75350E+01 4.00625E+00 0.00000E+00
 -1       386 2.05350E+01 4.00625E+00 0.00000E+00
 -1       387 2.35350E+01 4.00625E+00 0.00000E+00
 -1       388 2.65350E+01 4.00625E+00 0.00000E+00
 -1       389 2.95350E+01 4.00625E+00 0.00000E+00
 -1       390 3.25350E+01 4.00625E+00 0.00000E+00
 -1       391 3.55350E+01 4.00625E+00 0.00000E+00
 -1       392 3.85350E+01 4.00625E+00 0.00000E+00
 -1       393 4.15350E+01 4.00625E+00 0.00000E+00
 -1       394 4.45350E+01 4.00625E+00 0.00000E+00
 -1       395 4.73850E+01 4.00625E+00 0.00000E+00
 -1       396 5.02350E+01 4.00625E+00 0.00000E+00
 -1       397 5.32350E+01 4.00625E+00 0.00000E+00
 -1       398 5.62350E+01 4.00625E+00 0.00000E+00
 -1       399 5.92350E+01 4.00625E+00 0.00000E+00
 -1       400 6.22350E+01 4.00625E+00 0.00000E+00
 -1       401 6.52350E+01 4.00625E+00 0.00000E+00
 -1       402 6.82350E+01 4.00625E+00 0.00000E+00
 -1       403 7.12350E+01 4.00625E+00 0.00000E+00
 -1       404 7.42350E+01 4.00625E+00 0.00000E+00
 -1       405 7.72350E+01 4.00625E+00 0.00000E+00
 -1       406 8.02350E+01 4.00625E+00 0.00000E+00
 -1       407 8.32350E+01 4.00625E+00 0.00000E+00
 -1       408 8.62350E+01 4.00625E+00 0.00000E+00
 -1       409 8.93850E+01 4.00625E+00 0.00000E+00
 -1       410 9.23850E+01 4.00625E+00 0.00000E+00
 -1       411 9.53850E+01 4.00625E+00 0.00000E+00
 -1       412 9.83850E+01 4.00625E+00 0.00000E+00
 -1       413 1.01385E+02 4.00625E+00 0.00000E+00
 -1       414 1.04385E+02 4.00625E+00 0.00000E+00
 -1       415 1.07385E+02 4.00625E+00 0.00000E+00
 -1       416 1.10385E+02 4.00625E+00 0.00000E+00
 -1       417 1.13385E+02 4.00625E+00 0.00000E+00
 -1       418 1.16385E+02 4.00625E+00 0.00000E+00
 -1       419 1.19385E+02 4.00625E+00 0.00000E+00
 -1       420 1.22385E+02 4.00625E+00 0.00000E+00
 -1       421 1.25385E+02 4.00625E+00 0.00000E+00
 -1       422 1.28385E+02 4.00625E+00 0.00000E+00
 -1       423 1.31385E+02 4.00625E+00 0.00000E+00
 -1       424 1.34385E+02 4.00625E+00 0.00000E+00
 -1       425 1.37385E+02 4.00625E+00 0.00000E+00
 -1       426 1.40385E+02 4.00625E+00 0.00000E+00
 -1       427 1.43385E+02 4.00625E+00 0.00000E+00
 -1       428 1.45393E+02 4.21562E+00 0.00000E+00
 -1       429 1.44804E+02 1.18000E+01 0.00000E+00
 -1       430 1.44804E+02 8.85000E+00 0.00000E+00
 -1       431 1.45099E+02 6.53281E+00 0.00000E+00
 -1       432 1.44804E+02 1.47000E+01 0.00000E+00
 -1       433 1.44804E+02 1.76500E+01 0.00000E+00
 -1       434 1.44804E+02 2.06000E+01 0.00000E+00
 -1       435 1.44804E+02 2.35500E+01 0.00000E+00
 -1       436 1.44804E+02 2.65000E+01 0.00000E+00
 -1       437 1.44804E+02 2.94500E+01 0.00000E+00
 -1       438 1.44804E+02 3.23500E+01 0.00000E+00
 -1       439 1.44804E+02 3.53000E+01 0.00000E+00
 -1       440 1.44804E+02 3.82500E+01 0.00000E+00
 -1       441 1.44804E+02 4.12000E+01 0.00000E+00
 -1       442 5.36705E+01 1.39023E+01 0.00000E+00
 -1       443 5.48428E+01 1.79868E+01 0.00000E+00
 -1       444 5.44757E+01 1.57590E+01 0.00000E+00
 -1       445 5.30026E+01 1.22000E+01 0.00000E+00
 -1       446 5.13409E+01 1.06349E+01 0.00000E+00
 -1       447 5.19600E+00 3.82125E+01 0.00000E+00
 -1       448 4.78900E+01 8.57093E+00 0.00000E+00
 -1       449 4.55070E+01 7.93012E+00 0.00000E+00
 -1       450 4.37585E+01 8.02177E+00 0.00000E+00
 -1       451 4.16307E+01 8.83148E+00 0.00000E+00
 -1       452 3.98239E+01 9.68405E+00 0.00000E+00
 -1       453 3.83641E+01 1.10607E+01 0.00000E+00
 -1       454 3.70926E+01 1.24743E+01 0.00000E+00
 -1       455 3.60679E+01 1.44306E+01 0.00000E+00
 -1       456 3.54717E+01 1.66144E+01 0.00000E+00
 -1       457 3.55607E+01 1.82613E+01 0.00000E+00
 -1       458 3.57251E+01 2.03600E+01 0.00000E+00
 -1       459 3.65664E+01 2.21290E+01 0.00000E+00
 -1       460 3.73701E+01 2.38587E+01 0.00000E+00
 -1       461 3.90162E+01 2.55325E+01 0.00000E+00
 -1       462 4.04683E+01 2.64601E+01 0.00000E+00
 -1       463 4.26540E+01 2.73504E+01 0.00000E+00
 -1       464 4.43599E+01 2.75271E+01 0.00000E+00
 -1       465 4.66076E+01 2.74167E+01 0.00000E+00
 -1       466 4.83502E+01 2.67967E+01 0.00000E+00
 -1       467 5.01744E+01 2.58951E+01 0.00000E+00
 -1       468 5.17746E+01 2.49096E+01 0.00000E+00
 -1       469 5.29018E+01 2.33397E+01 0.00000E+00
 -1       470 5.37664E+01 2.17004E+01 0.00000E+00
 -1       471 5.45860E+01 1.96420E+01 0.00000E+00
 -1       472 4.99537E+01 9.48247E+00 0.00000E+00
 -1       473 1.00350E+01 6.60425E+00 0.00000E+00
 -1       474 7.79400E+00 3.08500E+01 0.00000E+00
 -1       475 7.79400E+00 3.38000E+01 0.00000E+00
 -1       476 7.79400E+00 2.49500E+01 0.00000E+00
 -1       477 7.79400E+00 2.20000E+01 0.00000E+00
 -1       478 7.79400E+00 1.91000E+01 0.00000E+00
 -1       479 7.79400E+00 1.61500E+01 0.00000E+00
 -1       480 7.79400E+00 1.32000E+01 0.00000E+00
 -1       481 7.79400E+00 1.02500E+01 0.00000E+00
 -1       482 5.35775E+01 9.92496E+00 0.00000E+00
 -1       483 1.30350E+01 6.60425E+00 0.00000E+00
 -1       484 1.06500E+01 4.22060E+01 0.00000E+00
 -1       485 4.95810E+01 7.53446E+00 0.00000E+00
 -1       486 1.36500E+01 4.22060E+01 0.00000E+00
 -1       487 1.66500E+01 4.22060E+01 0.00000E+00
 -1       488 1.96500E+01 4.22060E+01 0.00000E+00
 -1       489 2.26500E+01 4.22060E+01 0.00000E+00
 -1       490 2.56500E+01 4.22060E+01 0.00000E+00
 -1       491 2.86500E+01 4.22060E+01 0.00000E+00
 -1       492 3.16500E+01 4.22060E+01 0.00000E+00
 -1       493 3.46500E+01 4.22060E+01 0.00000E+00
 -1       494 3.76500E+01 4.22060E+01 0.00000E+00
 -1       495 4.06500E+01 4.22060E+01 0.00000E+00
 -1       496 4.36500E+01 4.22060E+01 0.00000E+00
 -1       497 4.66500E+01 4.22060E+01 0.00000E+00
 -1       498 4.96500E+01 4.22060E+01 0.00000E+00
 -1       499 5.26500E+01 4.22060E+01 0.00000E+00
 -1       500 5.56500E+01 4.22060E+01 0.00000E+00
 -1       501 5.86500E+01 4.22060E+01 0.00000E+00
 -1       502 6.16500E+01 4.22060E+01 0.00000E+00
 -1       503 6.46500E+01 4.22060E+01 0.00000E+00
 -1       504 6.76500E+01 4.22060E+01 0.00000E+00
 -1       505 7.06500E+01 4.22060E+01 0.00000E+00
 -1       506 7.36500E+01 4.22060E+01 0.00000E+00
 -1       507 7.66500E+01 4.22060E+01 0.00000E+00
 -1       508 7.96500E+01 4.22060E+01 0.00000E+00
 -1       509 8.26500E+01 4.22060E+01 0.00000E+00
 -1       510 8.56500E+01 4.22060E+01 0.00000E+00
 -1       511 8.86500E+01 4.22060E+01 0.00000E+00
 -1       512 9.16500E+01 4.22060E+01 0.00000E+00
 -1       513 9.46500E+01 4.22060E+01 0.00000E+00
 -1       514 9.76500E+01 4.22060E+01 0.00000E+00
 -1       515 1.00650E+02 4.22060E+01 0.00000E+00
 -1       516 1.03650E+02 4.22060E+01 0.00000E+00
 -1       517 1.06650E+02 4.22060E+01 0.00000E+00
 -1       518 1.09650E+02 4.22060E+01 0.00000E+00
 -1       519 1.12650E+02 4.22060E+01 0.00000E+00
 -1       520 1.15650E+02 4.22060E+01 0.00000E+00
 -1       521 1.18650E+02 4.22060E+01 0.00000E+00
 -1       522 1.21650E+02 4.22060E+01 0.00000E+00
 -1       523 1.24650E+02 4.22060E+01 0.00000E+00
 -1       524 1.27650E+02 4.22060E+01 0.00000E+00
 -1       525 1.30650E+02 4.22060E+01 0.00000E+00
 -1       526 1.33650E+02 4.22060E+01 0.00000E+00
 -1       527 1.36650E+02 4.22060E+01 0.00000E+00
 -1       528 1.39650E+02 4.22060E+01 0.00000E+00
 -1       529 1.90350E+01 6.60425E+00 0.00000E+00
 -1       530 2.20350E+01 6.60425E+00 0.00000E+00
 -1       531 2.50350E+01 6.60425E+00 0.00000E+00
 -1       532 2.80350E+01 6.60425E+00 0.00000E+00
 -1       533 3.10350E+01 6.60425E+00 0.00000E+00
 -1       534 3.40350E+01 6.60425E+00 0.00000E+00
 -1       535 3.70350E+01 6.60425E+00 0.00000E+00
 -1       536 4.30350E+01 6.05650E+00 0.00000E+00
 -1       537 4.59600E+01 6.22407E+00 0.00000E+00
 -1       538 4.88100E+01 6.05650E+00 0.00000E+00
 -1       539 5.18100E+01 6.05650E+00 0.00000E+00
 -1       540 5.48100E+01 6.05650E+00 0.00000E+00
 -1       541 5.78100E+01 6.05650E+00 0.00000E+00
 -1       542 6.08100E+01 6.05650E+00 0.00000E+00
 -1       543 6.38100E+01 6.05650E+00 0.00000E+00
 -1       544 6.68100E+01 6.05650E+00 0.00000E+00
 -1       545 6.98100E+01 6.05650E+00 0.00000E+00
 -1       546 7.28100E+01 6.05650E+00 0.00000E+00
 -1       547 7.58100E+01 6.05650E+00 0.00000E+00
 -1       548 7.88100E+01 6.05650E+00 0.00000E+00
 -1       549 8.18100E+01 6.05650E+00 0.00000E+00
 -1       550 8.48100E+01 6.05650E+00 0.00000E+00
 -1       551 8.78100E+01 6.60425E+00 0.00000E+00
 -1       552 9.08100E+01 6.60425E+00 0.00000E+00
 -1       553 9.38100E+01 6.60425E+00 0.00000E+00
 -1       554 9.68100E+01 6.60425E+00 0.00000E+00
 -1       555 9.98100E+01 6.60425E+00 0.00000E+00
 -1       556 1.02810E+02 6.60425E+00 0.00000E+00
 -1       557 1.05810E+02 6.60425E+00 0.00000E+00
 -1       558 1.08810E+02 6.60425E+00 0.00000E+00
 -1       559 1.11810E+02 6.60425E+00 0.00000E+00
 -1       560 1.14810E+02 6.60425E+00 0.00000E+00
 -1       561 1.17810E+02 6.60425E+00 0.00000E+00
 -1       562 1.20810E+02 6.60425E+00 0.00000E+00
 -1       563 1.23810E+02 6.60425E+00 0.00000E+00
 -1       564 1.26810E+02 6.60425E+00 0.00000E+00
 -1       565 1.29810E+02 6.60425E+00 0.00000E+00
 -1       566 1.32810E+02 6.60425E+00 0.00000E+00
 -1       567 1.35810E+02 6.60425E+00 0.00000E+00
 -1       568 1.38810E+02 6.60425E+00 0.00000E+00
 -1       569 1.41810E+02 6.60425E+00 0.00000E+00
 -1       570 1.42206E+02 1.61750E+01 0.00000E+00
 -1       571 1.42206E+02 1.91250E+01 0.00000E+00
 -1       572 1.42206E+02 1.03250E+01 0.00000E+00
 -1       573 1.42206E+02 1.32500E+01 0.00000E+00
 -1       574 1.42206E+02 2.20750E+01 0.00000E+00
 -1       575 1.42206E+02 2.50250E+01 0.00000E+00
 -1       576 1.42206E+02 2.79750E+01 0.00000E+00
 -1       577 1.42206E+02 3.08750E+01 0.00000E+00
 -1       578 1.42206E+02 3.38250E+01 0.00000E+00
 -1       579 1.42206E+02 3.67750E+01 0.00000E+00
 -1       580 1.42206E+02 3.97250E+01 0.00000E+00
 -1       581 5.65169E+01 1.65668E+01 0.00000E+00
 -1       582 5.46992E+01 1.25165E+01 0.00000E+00
 -1       583 1.60350E+01 6.60425E+00 0.00000E+00