    1C
    1UUSER                                                              
    1UDATE              27.october.2022                                 
    1UTIME              00:22:40                                        
    1UHOST                                                              
    1UPGM               CalculiX                                        
    1UVERSION           Version 2.17                             
    1UCOMPILETIME       Thu Jul 23 21:43:50 CEST 2020                    
    1UDIR                                                               
    1UDBN                                                               
    1UMAT    1SOLIDMATERIAL                                             
    2C                          4255                                     1
 -1         1 1.37913E+01 3.63637E+01 0.00000E+00
 -1         2 1.97215E+01 2.94459E+01 0.00000E+00
 -1         3 1.50000E+02 0.00000E+00 0.00000E+00
 -1         4 1.50000E+02 5.00000E+01 0.00000E+00
 -1         5 0.00000E+00 0.00000E+00 0.00000E+00
 -1         6 0.00000E+00 5.00000E+01 0.00000E+00
 -1         7 0.00000E+00 4.69500E+01 0.00000E+00
 -1         8 0.00000E+00 4.39500E+01 0.00000E+00
 -1         9 0.00000E+00 4.09000E+01 0.00000E+00
 -1        10 0.00000E+00 3.80500E+01 0.00000E+00
 -1        11 0.00000E+00 3.54500E+01 0.00000E+00
 -1        12 0.00000E+00 3.31500E+01 0.00000E+00
 -1        13 0.00000E+00 3.10500E+01 0.00000E+00
 -1        14 0.00000E+00 2.88500E+01 0.00000E+00
 -1        15 0.00000E+00 2.66000E+01 0.00000E+00
 -1        16 0.00000E+00 2.41000E+01 0.00000E+00
 -1        17 0.00000E+00 2.11000E+01 0.00000E+00
 -1        18 0.00000E+00 1.81000E+01 0.00000E+00
 -1        19 0.00000E+00 1.51000E+01 0.00000E+00
 -1        20 0.00000E+00 1.20500E+01 0.00000E+00
 -1        21 0.00000E+00 9.05000E+00 0.00000E+00
 -1        22 0.00000E+00 6.00000E+00 0.00000E+00
 -1        23 0.00000E+00 3.00000E+00 0.00000E+00
 -1        24 3.15000E+00 5.00000E+01 0.00000E+00
 -1        25 6.15000E+00 5.00000E+01 0.00000E+00
 -1        26 9.15000E+00 5.00000E+01 0.00000E+00
 -1        27 1.21500E+01 5.00000E+01 0.00000E+00
 -1        28 1.51500E+01 5.00000E+01 0.00000E+00
 -1        29 1.81500E+01 5.00000E+01 0.00000E+00
 -1        30 2.11500E+01 5.00000E+01 0.00000E+00
 -1        31 2.41500E+01 5.00000E+01 0.00000E+00
 -1        32 2.71500E+01 5.00000E+01 0.00000E+00
 -1        33 3.01500E+01 5.00000E+01 0.00000E+00
 -1        34 3.31500E+01 5.00000E+01 0.00000E+00
 -1        35 3.61500E+01 5.00000E+01 0.00000E+00
 -1        36 3.91500E+01 5.00000E+01 0.00000E+00
 -1        37 4.21500E+01 5.00000E+01 0.00000E+00
 -1        38 4.51500E+01 5.00000E+01 0.00000E+00
 -1        39 4.81500E+01 5.00000E+01 0.00000E+00
 -1        40 5.11500E+01 5.00000E+01 0.00000E+00
 -1        41 5.41500E+01 5.00000E+01 0.00000E+00
 -1        42 5.71500E+01 5.00000E+01 0.00000E+00
 -1        43 6.01500E+01 5.00000E+01 0.00000E+00
 -1        44 6.31500E+01 5.00000E+01 0.00000E+00
 -1        45 6.61500E+01 5.00000E+01 0.00000E+00
 -1        46 6.91500E+01 5.00000E+01 0.00000E+00
 -1        47 7.21500E+01 5.00000E+01 0.00000E+00
 -1        48 7.51500E+01 5.00000E+01 0.00000E+00
 -1        49 7.81500E+01 5.00000E+01 0.00000E+00
 -1        50 8.11500E+01 5.00000E+01 0.00000E+00
 -1        51 8.41500E+01 5.00000E+01 0.00000E+00
 -1        52 8.71500E+01 5.00000E+01 0.00000E+00
 -1        53 9.01500E+01 5.00000E+01 0.00000E+00
 -1        54 9.31500E+01 5.00000E+01 0.00000E+00
 -1        55 9.61500E+01 5.00000E+01 0.00000E+00
 -1        56 9.91500E+01 5.00000E+01 0.00000E+00
 -1        57 1.02150E+02 5.00000E+01 0.00000E+00
 -1        58 1.05150E+02 5.00000E+01 0.00000E+00
 -1        59 1.08150E+02 5.00000E+01 0.00000E+00
 -1        60 1.11150E+02 5.00000E+01 0.00000E+00
 -1        61 1.14150E+02 5.00000E+01 0.00000E+00
 -1        62 1.17150E+02 5.00000E+01 0.00000E+00
 -1        63 1.20150E+02 5.00000E+01 0.00000E+00
 -1        64 1.23150E+02 5.00000E+01 0.00000E+00
 -1        65 1.26150E+02 5.00000E+01 0.00000E+00
 -1        66 1.29150E+02 5.00000E+01 0.00000E+00
 -1        67 1.32150E+02 5.00000E+01 0.00000E+00
 -1        68 1.35150E+02 5.00000E+01 0.00000E+00
 -1        69 1.38150E+02 5.00000E+01 0.00000E+00
 -1        70 1.41150E+02 5.00000E+01 0.00000E+00
 -1        71 1.44150E+02 5.00000E+01 0.00000E+00
 -1        72 1.47150E+02 5.00000E+01 0.00000E+00
 -1        73 3.15000E+00 0.00000E+00 0.00000E+00
 -1        74 6.15000E+00 0.00000E+00 0.00000E+00
 -1        75 9.15000E+00 0.00000E+00 0.00000E+00
 -1        76 1.21500E+01 0.00000E+00 0.00000E+00
 -1        77 1.51500E+01 0.00000E+00 0.00000E+00
 -1        78 1.81500E+01 0.00000E+00 0.00000E+00
 -1        79 2.11500E+01 0.00000E+00 0.00000E+00
 -1        80 2.41500E+01 0.00000E+00 0.00000E+00
 -1        81 2.71500E+01 0.00000E+00 0.00000E+00
 -1        82 3.01500E+01 0.00000E+00 0.00000E+00
 -1        83 3.31500E+01 0.00000E+00 0.00000E+00
 -1        84 3.61500E+01 0.00000E+00 0.00000E+00
 -1        85 3.91500E+01 0.00000E+00 0.00000E+00
 -1        86 4.21500E+01 0.00000E+00 0.00000E+00
 -1        87 4.51500E+01 0.00000E+00 0.00000E+00
 -1        88 4.81500E+01 0.00000E+00 0.00000E+00
 -1        89 5.11500E+01 0.00000E+00 0.00000E+00
 -1        90 5.41500E+01 0.00000E+00 0.00000E+00
 -1        91 5.71500E+01 0.00000E+00 0.00000E+00
 -1        92 6.01500E+01 0.00000E+00 0.00000E+00
 -1        93 6.31500E+01 0.00000E+00 0.00000E+00
 -1        94 6.61500E+01 0.00000E+00 0.00000E+00
 -1        95 6.91500E+01 0.00000E+00 0.00000E+00
 -1        96 7.21500E+01 0.00000E+00 0.00000E+00
 -1        97 7.51500E+01 0.00000E+00 0.00000E+00
 -1        98 7.81500E+01 0.00000E+00 0.00000E+00
 -1        99 8.11500E+01 0.00000E+00 0.00000E+00
 -1       100 8.41500E+01 0.00000E+00 0.00000E+00
 -1       101 8.71500E+01 0.00000E+00 0.00000E+00
 -1       102 9.01500E+01 0.00000E+00 0.00000E+00
 -1       103 9.31500E+01 0.00000E+00 0.00000E+00
 -1       104 9.61500E+01 0.00000E+00 0.00000E+00
 -1       105 9.91500E+01 0.00000E+00 0.00000E+00
 -1       106 1.02150E+02 0.00000E+00 0.00000E+00
 -1       107 1.05150E+02 0.00000E+00 0.00000E+00
 -1       108 1.08150E+02 0.00000E+00 0.00000E+00
 -1       109 1.11150E+02 0.00000E+00 0.00000E+00
 -1       110 1.14150E+02 0.00000E+00 0.00000E+00
 -1       111 1.17150E+02 0.00000E+00 0.00000E+00
 -1       112 1.20150E+02 0.00000E+00 0.00000E+00
 -1       113 1.23150E+02 0.00000E+00 0.00000E+00
 -1       114 1.26150E+02 0.00000E+00 0.00000E+00
 -1       115 1.29150E+02 0.00000E+00 0.00000E+00
 -1       116 1.32150E+02 0.00000E+00 0.00000E+00
 -1       117 1.35150E+02 0.00000E+00 0.00000E+00
 -1       118 1.38150E+02 0.00000E+00 0.00000E+00
 -1       119 1.41150E+02 0.00000E+00 0.00000E+00
 -1       120 1.44150E+02 0.00000E+00 0.00000E+00
 -1       121 1.47150E+02 0.00000E+00 0.00000E+00
 -1       122 1.50000E+02 2.95000E+00 0.00000E+00
 -1       123 1.50000E+02 5.90000E+00 0.00000E+00
 -1       124 1.50000E+02 8.85000E+00 0.00000E+00
 -1       125 1.50000E+02 1.18000E+01 0.00000E+00
 -1       126 1.50000E+02 1.47500E+01 0.00000E+00
 -1       127 1.50000E+02 1.76500E+01 0.00000E+00
 -1       128 1.50000E+02 2.06000E+01 0.00000E+00
 -1       129 1.50000E+02 2.35500E+01 0.00000E+00
 -1       130 1.50000E+02 2.65000E+01 0.00000E+00
 -1       131 1.50000E+02 2.94500E+01 0.00000E+00
 -1       132 1.50000E+02 3.24000E+01 0.00000E+00
 -1       133 1.50000E+02 3.53000E+01 0.00000E+00
 -1       134 1.50000E+02 3.82500E+01 0.00000E+00
 -1       135 1.50000E+02 4.12000E+01 0.00000E+00
 -1       136 1.50000E+02 4.41500E+01 0.00000E+00
 -1       137 1.50000E+02 4.71000E+01 0.00000E+00
 -1       138 1.95689E+01 2.79924E+01 0.00000E+00
 -1       139 1.91171E+01 2.66006E+01 0.00000E+00
 -1       140 1.83670E+01 2.53074E+01 0.00000E+00
 -1       141 1.73898E+01 2.42299E+01 0.00000E+00
 -1       142 1.61801E+01 2.33601E+01 0.00000E+00
 -1       143 1.48181E+01 2.27673E+01 0.00000E+00
 -1       144 1.34007E+01 2.24790E+01 0.00000E+00
 -1       145 1.17649E+01 2.25116E+01 0.00000E+00
 -1       146 1.04078E+01 2.28393E+01 0.00000E+00
 -1       147 8.98541E+00 2.35263E+01 0.00000E+00
 -1       148 7.85779E+00 2.44116E+01 0.00000E+00
 -1       149 6.86133E+00 2.56172E+01 0.00000E+00
 -1       150 6.21041E+00 2.68757E+01 0.00000E+00
 -1       151 5.81023E+00 2.83347E+01 0.00000E+00
 -1       152 5.73310E+00 2.98494E+01 0.00000E+00
 -1       153 5.95521E+00 3.12398E+01 0.00000E+00
 -1       154 6.46761E+00 3.25907E+01 0.00000E+00
 -1       155 7.28977E+00 3.38614E+01 0.00000E+00
 -1       156 8.33869E+00 3.49041E+01 0.00000E+00
 -1       157 9.55182E+00 3.56872E+01 0.00000E+00
 -1       158 1.08455E+01 3.61899E+01 0.00000E+00
 -1       159 1.23208E+01 3.64345E+01 0.00000E+00
 -1       160 1.51675E+01 3.60046E+01 0.00000E+00
 -1       161 1.64334E+01 3.53807E+01 0.00000E+00
 -1       162 1.75483E+01 3.45156E+01 0.00000E+00
 -1       163 1.85085E+01 3.33843E+01 0.00000E+00
 -1       164 1.91671E+01 3.21761E+01 0.00000E+00
 -1       165 1.95876E+01 3.08082E+01 0.00000E+00
 -1       166 2.59800E+00 4.54500E+01 0.00000E+00
 -1       167 2.59800E+00 4.24000E+01 0.00000E+00
 -1       168 2.59800E+00 3.95500E+01 0.00000E+00
 -1       169 2.59800E+00 3.69500E+01 0.00000E+00
 -1       170 2.59800E+00 3.46500E+01 0.00000E+00
 -1       171 2.05026E+00 2.99500E+01 0.00000E+00
 -1       172 2.05026E+00 2.77000E+01 0.00000E+00
 -1       173 2.05026E+00 2.52000E+01 0.00000E+00
 -1       174 2.05026E+00 2.22000E+01 0.00000E+00
 -1       175 2.05026E+00 1.92000E+01 0.00000E+00
 -1       176 2.05026E+00 1.62000E+01 0.00000E+00
 -1       177 2.05026E+00 1.31500E+01 0.00000E+00
 -1       178 2.05026E+00 1.01500E+01 0.00000E+00
 -1       179 2.05026E+00 7.10000E+00 0.00000E+00
 -1       180 2.05026E+00 4.10000E+00 0.00000E+00
 -1       181 2.60013E+00 2.05000E+00 0.00000E+00
 -1       182 4.65000E+00 4.74020E+01 0.00000E+00
 -1       183 7.65000E+00 4.74020E+01 0.00000E+00
 -1       184 1.06500E+01 4.74020E+01 0.00000E+00
 -1       185 1.36500E+01 4.74020E+01 0.00000E+00
 -1       186 1.66500E+01 4.74020E+01 0.00000E+00
 -1       187 1.96500E+01 4.74020E+01 0.00000E+00
 -1       188 2.26500E+01 4.74020E+01 0.00000E+00
 -1       189 2.56500E+01 4.74020E+01 0.00000E+00
 -1       190 2.86500E+01 4.74020E+01 0.00000E+00
 -1       191 3.16500E+01 4.74020E+01 0.00000E+00
 -1       192 3.46500E+01 4.74020E+01 0.00000E+00
 -1       193 3.76500E+01 4.74020E+01 0.00000E+00
 -1       194 4.06500E+01 4.74020E+01 0.00000E+00
 -1       195 4.36500E+01 4.74020E+01 0.00000E+00
 -1       196 4.66500E+01 4.74020E+01 0.00000E+00
 -1       197 4.96500E+01 4.74020E+01 0.00000E+00
 -1       198 5.26500E+01 4.74020E+01 0.00000E+00
 -1       199 5.56500E+01 4.74020E+01 0.00000E+00
 -1       200 5.86500E+01 4.74020E+01 0.00000E+00
 -1       201 6.16500E+01 4.74020E+01 0.00000E+00
 -1       202 6.46500E+01 4.74020E+01 0.00000E+00
 -1       203 6.76500E+01 4.74020E+01 0.00000E+00
 -1       204 7.06500E+01 4.74020E+01 0.00000E+00
 -1       205 7.36500E+01 4.74020E+01 0.00000E+00
 -1       206 7.66500E+01 4.74020E+01 0.00000E+00
 -1       207 7.96500E+01 4.74020E+01 0.00000E+00
 -1       208 8.26500E+01 4.74020E+01 0.00000E+00
 -1       209 8.56500E+01 4.74020E+01 0.00000E+00
 -1       210 8.86500E+01 4.74020E+01 0.00000E+00
 -1       211 9.16500E+01 4.74020E+01 0.00000E+00
 -1       212 9.46500E+01 4.74020E+01 0.00000E+00
 -1       213 9.76500E+01 4.74020E+01 0.00000E+00
 -1       214 1.00650E+02 4.74020E+01 0.00000E+00
 -1       215 1.03650E+02 4.74020E+01 0.00000E+00
 -1       216 1.06650E+02 4.74020E+01 0.00000E+00
 -1       217 1.09650E+02 4.74020E+01 0.00000E+00
 -1       218 1.12650E+02 4.74020E+01 0.00000E+00
 -1       219 1.15650E+02 4.74020E+01 0.00000E+00
 -1       220 1.18650E+02 4.74020E+01 0.00000E+00
 -1       221 1.21650E+02 4.74020E+01 0.00000E+00
 -1       222 1.24650E+02 4.74020E+01 0.00000E+00
 -1       223 1.27650E+02 4.74020E+01 0.00000E+00
 -1       224 1.30650E+02 4.74020E+01 0.00000E+00
 -1       225 1.33650E+02 4.74020E+01 0.00000E+00
 -1       226 1.36650E+02 4.74020E+01 0.00000E+00
 -1       227 1.39650E+02 4.74020E+01 0.00000E+00
 -1       228 1.42650E+02 4.74020E+01 0.00000E+00
 -1       229 1.45650E+02 4.74020E+01 0.00000E+00
 -1       230 5.60013E+00 2.05000E+00 0.00000E+00
 -1       231 8.60013E+00 2.05000E+00 0.00000E+00
 -1       232 1.16001E+01 2.05000E+00 0.00000E+00
 -1       233 1.46001E+01 2.05000E+00 0.00000E+00
 -1       234 1.76001E+01 2.05000E+00 0.00000E+00
 -1       235 2.06001E+01 2.05000E+00 0.00000E+00
 -1       236 2.36001E+01 2.05000E+00 0.00000E+00
 -1       237 2.66001E+01 2.05000E+00 0.00000E+00
 -1       238 2.96001E+01 2.05000E+00 0.00000E+00
 -1       239 3.26001E+01 2.05000E+00 0.00000E+00
 -1       240 3.56001E+01 2.05000E+00 0.00000E+00
 -1       241 3.86001E+01 2.05000E+00 0.00000E+00
 -1       242 4.16001E+01 2.05000E+00 0.00000E+00
 -1       243 4.46001E+01 2.05000E+00 0.00000E+00
 -1       244 4.76001E+01 2.05000E+00 0.00000E+00
 -1       245 5.06001E+01 2.05000E+00 0.00000E+00
 -1       246 5.36001E+01 2.05000E+00 0.00000E+00
 -1       247 5.66001E+01 2.05000E+00 0.00000E+00
 -1       248 5.96001E+01 2.05000E+00 0.00000E+00
 -1       249 6.26001E+01 2.05000E+00 0.00000E+00
 -1       250 6.56001E+01 2.05000E+00 0.00000E+00
 -1       251 6.86001E+01 2.05000E+00 0.00000E+00
 -1       252 7.16001E+01 2.05000E+00 0.00000E+00
 -1       253 7.46001E+01 2.05000E+00 0.00000E+00
 -1       254 7.76001E+01 2.05000E+00 0.00000E+00
 -1       255 8.06001E+01 2.05000E+00 0.00000E+00
 -1       256 8.36001E+01 2.05000E+00 0.00000E+00
 -1       257 8.66001E+01 2.05000E+00 0.00000E+00
 -1       258 8.96001E+01 2.05000E+00 0.00000E+00
 -1       259 9.26001E+01 2.05000E+00 0.00000E+00
 -1       260 9.56001E+01 2.05000E+00 0.00000E+00
 -1       261 9.86001E+01 2.05000E+00 0.00000E+00
 -1       262 1.01600E+02 2.05000E+00 0.00000E+00
 -1       263 1.04600E+02 2.05000E+00 0.00000E+00
 -1       264 1.07600E+02 2.05000E+00 0.00000E+00
 -1       265 1.10600E+02 2.05000E+00 0.00000E+00
 -1       266 1.13600E+02 2.05000E+00 0.00000E+00
 -1       267 1.16600E+02 2.05000E+00 0.00000E+00
 -1       268 1.19600E+02 2.05000E+00 0.00000E+00
 -1       269 1.22600E+02 2.05000E+00 0.00000E+00
 -1       270 1.25600E+02 2.05000E+00 0.00000E+00
 -1       271 1.28600E+02 2.05000E+00 0.00000E+00
 -1       272 1.31600E+02 2.05000E+00 0.00000E+00
 -1       273 1.34600E+02 2.05000E+00 0.00000E+00
 -1       274 1.37600E+02 2.05000E+00 0.00000E+00
 -1       275 1.40600E+02 2.05000E+00 0.00000E+00
 -1       276 1.43600E+02 2.05000E+00 0.00000E+00
 -1       277 1.46600E+02 2.05000E+00 0.00000E+00
 -1       278 1.47402E+02 4.42500E+00 0.00000E+00
 -1       279 1.47402E+02 7.37500E+00 0.00000E+00
 -1       280 1.47402E+02 1.03250E+01 0.00000E+00
 -1       281 1.47402E+02 1.32750E+01 0.00000E+00
 -1       282 1.47402E+02 1.61750E+01 0.00000E+00
 -1       283 1.47402E+02 1.91250E+01 0.00000E+00
 -1       284 1.47402E+02 2.20750E+01 0.00000E+00
 -1       285 1.47402E+02 2.50250E+01 0.00000E+00
 -1       286 1.47402E+02 2.79750E+01 0.00000E+00
 -1       287 1.47402E+02 3.09250E+01 0.00000E+00
 -1       288 1.47402E+02 3.38250E+01 0.00000E+00
 -1       289 1.47402E+02 3.67750E+01 0.00000E+00
 -1       290 1.47402E+02 3.97250E+01 0.00000E+00
 -1       291 1.47402E+02 4.26750E+01 0.00000E+00
 -1       292 1.46526E+02 4.50385E+01 0.00000E+00
 -1       293 2.09343E+01 2.85838E+01 0.00000E+00
 -1       294 2.05758E+01 2.68963E+01 0.00000E+00
 -1       295 1.98633E+01 2.53037E+01 0.00000E+00
 -1       296 1.88385E+01 2.38979E+01 0.00000E+00
 -1       297 1.74927E+01 2.28106E+01 0.00000E+00
 -1       298 1.59829E+01 2.19520E+01 0.00000E+00
 -1       299 1.43678E+01 2.13530E+01 0.00000E+00
 -1       300 1.25536E+01 2.10318E+01 0.00000E+00
 -1       301 1.08017E+01 2.14970E+01 0.00000E+00
 -1       302 9.09647E+00 2.19402E+01 0.00000E+00
 -1       303 7.67293E+00 2.30153E+01 0.00000E+00
 -1       304 6.16670E+00 2.40285E+01 0.00000E+00
 -1       305 5.45899E+00 2.56894E+01 0.00000E+00
 -1       306 4.59869E+00 2.72180E+01 0.00000E+00
 -1       307 4.39348E+00 2.90219E+01 0.00000E+00
 -1       308 4.64693E+00 3.07359E+01 0.00000E+00
 -1       309 5.07781E+00 3.23452E+01 0.00000E+00
 -1       310 5.57937E+00 3.40667E+01 0.00000E+00
 -1       311 6.90045E+00 3.53021E+01 0.00000E+00
 -1       312 8.24227E+00 3.63846E+01 0.00000E+00
 -1       313 9.75956E+00 3.70686E+01 0.00000E+00
 -1       314 1.13712E+01 3.75909E+01 0.00000E+00
 -1       315 1.31184E+01 3.76938E+01 0.00000E+00
 -1       316 1.47855E+01 3.73573E+01 0.00000E+00
 -1       317 1.63365E+01 3.67801E+01 0.00000E+00
 -1       318 1.77341E+01 3.59060E+01 0.00000E+00
 -1       319 1.90805E+01 3.48428E+01 0.00000E+00
 -1       320 1.99023E+01 3.33605E+01 0.00000E+00
 -1       321 2.06163E+01 3.18730E+01 0.00000E+00
 -1       322 2.08611E+01 3.02456E+01 0.00000E+00
 -1       323 2.05026E+00 3.20500E+01 0.00000E+00
 -1       324 3.38220E+00 4.66086E+01 0.00000E+00
 -1       325 5.19600E+00 4.09750E+01 0.00000E+00
 -1       326 5.19600E+00 4.40250E+01 0.00000E+00
 -1       327 4.64825E+00 3.58000E+01 0.00000E+00
 -1       328 3.76537E+00 2.64500E+01 0.00000E+00
 -1       329 4.43565E+00 2.07000E+01 0.00000E+00
 -1       330 4.43565E+00 1.77000E+01 0.00000E+00
 -1       331 4.43565E+00 1.46500E+01 0.00000E+00
 -1       332 4.43565E+00 1.16500E+01 0.00000E+00
 -1       333 4.43565E+00 8.60000E+00 0.00000E+00
 -1       334 4.43565E+00 5.60000E+00 0.00000E+00
 -1       335 5.01789E+00 3.82500E+00 0.00000E+00
 -1       336 8.01789E+00 3.82500E+00 0.00000E+00
 -1       337 9.15000E+00 4.48040E+01 0.00000E+00
 -1       338 1.21500E+01 4.48040E+01 0.00000E+00
 -1       339 1.51500E+01 4.48040E+01 0.00000E+00
 -1       340 1.81500E+01 4.48040E+01 0.00000E+00
 -1       341 2.11500E+01 4.48040E+01 0.00000E+00
 -1       342 2.41500E+01 4.48040E+01 0.00000E+00
 -1       343 2.71500E+01 4.48040E+01 0.00000E+00
 -1       344 3.01500E+01 4.48040E+01 0.00000E+00
 -1       345 3.31500E+01 4.48040E+01 0.00000E+00
 -1       346 3.61500E+01 4.48040E+01 0.00000E+00
 -1       347 3.91500E+01 4.48040E+01 0.00000E+00
 -1       348 4.21500E+01 4.48040E+01 0.00000E+00
 -1       349 4.51500E+01 4.48040E+01 0.00000E+00
 -1       350 4.81500E+01 4.48040E+01 0.00000E+00
 -1       351 5.11500E+01 4.48040E+01 0.00000E+00
 -1       352 5.41500E+01 4.48040E+01 0.00000E+00
 -1       353 5.71500E+01 4.48040E+01 0.00000E+00
 -1       354 6.01500E+01 4.48040E+01 0.00000E+00
 -1       355 6.31500E+01 4.48040E+01 0.00000E+00
 -1       356 6.61500E+01 4.48040E+01 0.00000E+00
 -1       357 6.91500E+01 4.48040E+01 0.00000E+00
 -1       358 7.21500E+01 4.48040E+01 0.00000E+00
 -1       359 7.51500E+01 4.48040E+01 0.00000E+00
 -1       360 7.81500E+01 4.48040E+01 0.00000E+00
 -1       361 8.11500E+01 4.48040E+01 0.00000E+00
 -1       362 8.41500E+01 4.48040E+01 0.00000E+00
 -1       363 8.71500E+01 4.48040E+01 0.00000E+00
 -1       364 9.01500E+01 4.48040E+01 0.00000E+00
 -1       365 9.31500E+01 4.48040E+01 0.00000E+00
 -1       366 9.61500E+01 4.48040E+01 0.00000E+00
 -1       367 9.91500E+01 4.48040E+01 0.00000E+00
 -1       368 1.02150E+02 4.48040E+01 0.00000E+00
 -1       369 1.05150E+02 4.48040E+01 0.00000E+00
 -1       370 1.08150E+02 4.48040E+01 0.00000E+00
 -1       371 1.11150E+02 4.48040E+01 0.00000E+00
 -1       372 1.14150E+02 4.48040E+01 0.00000E+00
 -1       373 1.17150E+02 4.48040E+01 0.00000E+00
 -1       374 1.20150E+02 4.48040E+01 0.00000E+00
 -1       375 1.23150E+02 4.48040E+01 0.00000E+00
 -1       376 1.26150E+02 4.48040E+01 0.00000E+00
 -1       377 1.29150E+02 4.48040E+01 0.00000E+00
 -1       378 1.32150E+02 4.48040E+01 0.00000E+00
 -1       379 1.35150E+02 4.48040E+01 0.00000E+00
 -1       380 1.38150E+02 4.48040E+01 0.00000E+00
 -1       381 1.41150E+02 4.48040E+01 0.00000E+00
 -1       382 1.43838E+02 4.49212E+01 0.00000E+00
 -1       383 1.10179E+01 3.82500E+00 0.00000E+00
 -1       384 1.40179E+01 3.82500E+00 0.00000E+00
 -1       385 1.70179E+01 3.82500E+00 0.00000E+00
 -1       386 2.00179E+01 3.82500E+00 0.00000E+00
 -1       387 2.30179E+01 3.82500E+00 0.00000E+00
 -1       388 2.60179E+01 3.82500E+00 0.00000E+00
 -1       389 2.90179E+01 3.82500E+00 0.00000E+00
 -1       390 3.20179E+01 3.82500E+00 0.00000E+00
 -1       391 3.50179E+01 3.82500E+00 0.00000E+00
 -1       392 3.80179E+01 3.82500E+00 0.00000E+00
 -1       393 4.10179E+01 3.82500E+00 0.00000E+00
 -1       394 4.40179E+01 3.82500E+00 0.00000E+00
 -1       395 4.70179E+01 3.82500E+00 0.00000E+00
 -1       396 5.00179E+01 3.82500E+00 0.00000E+00
 -1       397 5.30179E+01 3.82500E+00 0.00000E+00
 -1       398 5.60179E+01 3.82500E+00 0.00000E+00
 -1       399 5.90179E+01 3.82500E+00 0.00000E+00
 -1       400 6.20179E+01 3.82500E+00 0.00000E+00
 -1       401 6.50179E+01 3.82500E+00 0.00000E+00
 -1       402 6.80179E+01 3.82500E+00 0.00000E+00
 -1       403 7.10179E+01 3.82500E+00 0.00000E+00
 -1       404 7.40179E+01 3.82500E+00 0.00000E+00
 -1       405 7.70179E+01 3.82500E+00 0.00000E+00
 -1       406 8.00179E+01 3.82500E+00 0.00000E+00
 -1       407 8.30179E+01 3.82500E+00 0.00000E+00
 -1       408 8.60179E+01 3.82500E+00 0.00000E+00
 -1       409 8.90179E+01 3.82500E+00 0.00000E+00
 -1       410 9.20179E+01 3.82500E+00 0.00000E+00
 -1       411 9.50179E+01 3.82500E+00 0.00000E+00
 -1       412 9.80179E+01 3.82500E+00 0.00000E+00
 -1       413 1.01018E+02 3.82500E+00 0.00000E+00
 -1       414 1.04018E+02 3.82500E+00 0.00000E+00
 -1       415 1.07018E+02 3.82500E+00 0.00000E+00
 -1       416 1.10018E+02 3.82500E+00 0.00000E+00
 -1       417 1.13018E+02 3.82500E+00 0.00000E+00
 -1       418 1.16018E+02 3.82500E+00 0.00000E+00
 -1       419 1.19018E+02 3.82500E+00 0.00000E+00
 -1       420 1.22018E+02 3.82500E+00 0.00000E+00
 -1       421 1.25018E+02 3.82500E+00 0.00000E+00
 -1       422 1.28018E+02 3.82500E+00 0.00000E+00
 -1       423 1.31018E+02 3.82500E+00 0.00000E+00
 -1       424 1.34018E+02 3.82500E+00 0.00000E+00
 -1       425 1.37018E+02 3.82500E+00 0.00000E+00
 -1       426 1.40018E+02 3.82500E+00 0.00000E+00
 -1       427 1.43018E+02 3.82500E+00 0.00000E+00
 -1       428 1.45210E+02 4.12500E+00 0.00000E+00
 -1       429 1.44804E+02 1.18000E+01 0.00000E+00
 -1       430 1.44804E+02 8.85000E+00 0.00000E+00
 -1       431 1.45007E+02 6.48750E+00 0.00000E+00
 -1       432 1.44804E+02 1.47000E+01 0.00000E+00
 -1       433 1.44804E+02 1.76500E+01 0.00000E+00
 -1       434 1.44804E+02 2.06000E+01 0.00000E+00
 -1       435 1.44804E+02 2.35500E+01 0.00000E+00
 -1       436 1.44804E+02 2.65000E+01 0.00000E+00
 -1       437 1.44804E+02 2.94500E+01 0.00000E+00
 -1       438 1.44804E+02 3.23500E+01 0.00000E+00
 -1       439 1.44804E+02 3.53000E+01 0.00000E+00
 -1       440 1.44804E+02 3.82500E+01 0.00000E+00
 -1       441 1.44804E+02 4.12000E+01 0.00000E+00
 -1       442 2.14027E+01 2.55706E+01 0.00000E+00
 -1       443 2.21926E+01 2.94717E+01 0.00000E+00
 -1       444 2.21869E+01 2.74359E+01 0.00000E+00
 -1       445 2.04660E+01 2.37879E+01 0.00000E+00
 -1       446 1.91381E+01 2.21505E+01 0.00000E+00
 -1       447 5.19600E+00 3.83750E+01 0.00000E+00
 -1       448 4.10051E+00 2.37000E+01 0.00000E+00
 -1       449 1.56844E+01 2.02801E+01 0.00000E+00
 -1       450 1.37304E+01 1.96685E+01 0.00000E+00
 -1       451 1.13450E+01 2.00116E+01 0.00000E+00
 -1       452 9.60195E+00 2.03830E+01 0.00000E+00
 -1       453 7.50253E+00 2.13097E+01 0.00000E+00
 -1       454 5.99630E+00 2.23229E+01 0.00000E+00
 -1       455 6.65224E+00 3.69826E+01 0.00000E+00
 -1       456 8.43378E+00 3.79847E+01 0.00000E+00
 -1       457 1.00883E+01 3.88019E+01 0.00000E+00
 -1       458 1.21440E+01 3.93545E+01 0.00000E+00
 -1       459 1.42084E+01 3.87961E+01 0.00000E+00
 -1       460 1.61007E+01 3.85191E+01 0.00000E+00
 -1       461 1.78115E+01 3.75841E+01 0.00000E+00
 -1       462 1.91579E+01 3.65209E+01 0.00000E+00
 -1       463 2.06251E+01 3.47301E+01 0.00000E+00
 -1       464 2.13391E+01 3.32427E+01 0.00000E+00
 -1       465 2.20205E+01 3.12521E+01 0.00000E+00
 -1       466 1.75029E+01 2.10361E+01 0.00000E+00
 -1       467 3.83790E+00 3.34976E+01 0.00000E+00
 -1       468 2.07024E+01 3.64082E+01 0.00000E+00
 -1       469 1.25219E+01 1.86483E+01 0.00000E+00
 -1       470 6.65347E+00 1.92000E+01 0.00000E+00
 -1       471 7.03365E+00 1.01250E+01 0.00000E+00
 -1       472 7.03365E+00 7.12500E+00 0.00000E+00
 -1       473 7.52577E+00 5.47500E+00 0.00000E+00
 -1       474 1.06500E+01 4.22510E+01 0.00000E+00
 -1       475 1.05258E+01 5.47500E+00 0.00000E+00
 -1       476 1.35258E+01 5.47500E+00 0.00000E+00
 -1       477 2.32987E+01 2.58711E+01 0.00000E+00
 -1       478 1.36500E+01 4.22510E+01 0.00000E+00
 -1       479 1.66500E+01 4.22510E+01 0.00000E+00
 -1       480 1.96500E+01 4.22510E+01 0.00000E+00
 -1       481 2.26500E+01 4.22510E+01 0.00000E+00
 -1       482 2.56500E+01 4.22510E+01 0.00000E+00
 -1       483 2.86500E+01 4.22510E+01 0.00000E+00
 -1       484 3.16500E+01 4.22510E+01 0.00000E+00
 -1       485 3.46500E+01 4.22510E+01 0.00000E+00
 -1       486 3.76500E+01 4.22510E+01 0.00000E+00
 -1       487 4.06500E+01 4.22510E+01 0.00000E+00
 -1       488 4.36500E+01 4.22510E+01 0.00000E+00
 -1       489 4.66500E+01 4.22510E+01 0.00000E+00
 -1       490 4.96500E+01 4.22510E+01 0.00000E+00
 -1       491 5.26500E+01 4.22510E+01 0.00000E+00
 -1       492 5.56500E+01 4.22510E+01 0.00000E+00
 -1       493 5.86500E+01 4.22510E+01 0.00000E+00
 -1       494 6.16500E+01 4.22510E+01 0.00000E+00
 -1       495 6.46500E+01 4.22510E+01 0.00000E+00
 -1       496 6.76500E+01 4.22510E+01 0.00000E+00
 -1       497 7.06500E+01 4.22510E+01 0.00000E+00
 -1       498 7.36500E+01 4.22510E+01 0.00000E+00
 -1       499 7.66500E+01 4.22510E+01 0.00000E+00
 -1       500 7.96500E+01 4.22510E+01 0.00000E+00
 -1       501 8.26500E+01 4.22510E+01 0.00000E+00
 -1       502 8.56500E+01 4.22510E+01 0.00000E+00
 -1       503 8.86500E+01 4.22510E+01 0.00000E+00
 -1       504 9.16500E+01 4.22510E+01 0.00000E+00
 -1       505 9.46500E+01 4.22510E+01 0.00000E+00
 -1       506 9.76500E+01 4.22510E+01 0.00000E+00
 -1       507 1.00650E+02 4.22510E+01 0.00000E+00
 -1       508 1.03650E+02 4.22510E+01 0.00000E+00
 -1       509 1.06650E+02 4.22510E+01 0.00000E+00
 -1       510 1.09650E+02 4.22510E+01 0.00000E+00
 -1       511 1.12650E+02 4.22510E+01 0.00000E+00
 -1       512 1.15650E+02 4.22510E+01 0.00000E+00
 -1       513 1.18650E+02 4.22510E+01 0.00000E+00
 -1       514 1.21650E+02 4.22510E+01 0.00000E+00
 -1       515 1.24650E+02 4.22510E+01 0.00000E+00
 -1       516 1.27650E+02 4.22510E+01 0.00000E+00
 -1       517 1.30650E+02 4.22510E+01 0.00000E+00
 -1       518 1.33650E+02 4.22510E+01 0.00000E+00
 -1       519 1.36650E+02 4.22510E+01 0.00000E+00
 -1       520 1.39650E+02 4.22510E+01 0.00000E+00
 -1       521 1.85179E+01 6.42300E+00 0.00000E+00
 -1       522 2.15179E+01 6.42300E+00 0.00000E+00
 -1       523 2.45179E+01 6.42300E+00 0.00000E+00
 -1       524 2.75179E+01 6.42300E+00 0.00000E+00
 -1       525 3.05179E+01 6.42300E+00 0.00000E+00
 -1       526 3.35179E+01 6.42300E+00 0.00000E+00
 -1       527 3.65179E+01 6.42300E+00 0.00000E+00
 -1       528 3.95179E+01 6.42300E+00 0.00000E+00
 -1       529 4.25179E+01 6.42300E+00 0.00000E+00
 -1       530 4.55179E+01 6.42300E+00 0.00000E+00
 -1       531 4.85179E+01 6.42300E+00 0.00000E+00
 -1       532 5.15179E+01 6.42300E+00 0.00000E+00
 -1       533 5.45179E+01 6.42300E+00 0.00000E+00
 -1       534 5.75179E+01 6.42300E+00 0.00000E+00
 -1       535 6.05179E+01 6.42300E+00 0.00000E+00
 -1       536 6.35179E+01 6.42300E+00 0.00000E+00
 -1       537 6.65179E+01 6.42300E+00 0.00000E+00
 -1       538 6.95179E+01 6.42300E+00 0.00000E+00
 -1       539 7.25179E+01 6.42300E+00 0.00000E+00
 -1       540 7.55179E+01 6.42300E+00 0.00000E+00
 -1       541 7.85179E+01 6.42300E+00 0.00000E+00
 -1       542 8.15179E+01 6.42300E+00 0.00000E+00
 -1       543 8.45179E+01 6.42300E+00 0.00000E+00
 -1       544 8.75179E+01 6.42300E+00 0.00000E+00
 -1       545 9.05179E+01 6.42300E+00 0.00000E+00
 -1       546 9.35179E+01 6.42300E+00 0.00000E+00
 -1       547 9.65179E+01 6.42300E+00 0.00000E+00
 -1       548 9.95179E+01 6.42300E+00 0.00000E+00
 -1       549 1.02518E+02 6.42300E+00 0.00000E+00
 -1       550 1.05518E+02 6.42300E+00 0.00000E+00
 -1       551 1.08518E+02 6.42300E+00 0.00000E+00
 -1       552 1.11518E+02 6.42300E+00 0.00000E+00
 -1       553 1.14518E+02 6.42300E+00 0.00000E+00
 -1       554 1.17518E+02 6.42300E+00 0.00000E+00
 -1       555 1.20518E+02 6.42300E+00 0.00000E+00
 -1       556 1.23518E+02 6.42300E+00 0.00000E+00
 -1       557 1.26518E+02 6.42300E+00 0.00000E+00
 -1       558 1.29518E+02 6.42300E+00 0.00000E+00
 -1       559 1.32518E+02 6.42300E+00 0.00000E+00
 -1       560 1.35518E+02 6.42300E+00 0.00000E+00
 -1       561 1.38518E+02 6.42300E+00 0.00000E+00
 -1       562 1.41518E+02 6.42300E+00 0.00000E+00
 -1       563 1.42206E+02 1.61750E+01 0.00000E+00
 -1       564 1.42206E+02 1.91250E+01 0.00000E+00
 -1       565 1.42206E+02 1.03250E+01 0.00000E+00
 -1       566 1.42206E+02 1.32500E+01 0.00000E+00
 -1       567 1.42206E+02 2.20750E+01 0.00000E+00
 -1       568 1.42206E+02 2.50250E+01 0.00000E+00
 -1       569 1.42206E+02 2.79750E+01 0.00000E+00
 -1       570 1.42206E+02 3.08750E+01 0.00000E+00
 -1       571 1.42206E+02 3.38250E+01 0.00000E+00
 -1       572 1.42206E+02 3.67750E+01 0.00000E+00
 -1       573 1.42206E+02 3.97250E+01 0.00000E+00
 -1       574 2.39049E+01 2.84490E+01 0.00000E+00
 -1       575 2.23043E+01 2.39594E+01 0.00000E+00
 -1       576 1.60218E+01 5.94900E+00 0.00000E+00
 -1       577 1.72199E+01 1.91518E+01 0.00000E+00
 -1       578 7.92300E+00 4.16130E+01 0.00000E+00
 -1       579 1.78590E+01 3.97036E+01 0.00000E+00
 -1       580 7.03365E+00 1.31250E+01 0.00000E+00
 -1       581 7.03365E+00 1.61750E+01 0.00000E+00
 -1       582 1.94751E+01 1.98990E+01 0.00000E+00
 -1       583 2.12644E+01 2.17833E+01 0.00000E+00