    1C
    1UUSER                                                              
    1UDATE              27.october.2022                                 
    1UTIME              00:29:49                                        
    1UHOST                                                              
    1UPGM               CalculiX                                        
    1UVERSION           Version 2.17                             
    1UCOMPILETIME       Thu Jul 23 21:43:50 CEST 2020                    
    1UDIR                                                               
    1UDBN                                                               
    1UMAT    1SOLIDMATERIAL                                             
    2C                          4293                                     1
 -1         1 2.05571E+01 3.52744E+01 0.00000E+00
 -1         2 2.75599E+01 2.82744E+01 0.00000E+00
 -1         3 1.50000E+02 0.00000E+00 0.00000E+00
 -1         4 1.50000E+02 5.00000E+01 0.00000E+00
 -1         5 0.00000E+00 0.00000E+00 0.00000E+00
 -1         6 0.00000E+00 5.00000E+01 0.00000E+00
 -1         7 0.00000E+00 4.70000E+01 0.00000E+00
 -1         8 0.00000E+00 4.40500E+01 0.00000E+00
 -1         9 0.00000E+00 4.11000E+01 0.00000E+00
 -1        10 0.00000E+00 3.81500E+01 0.00000E+00
 -1        11 0.00000E+00 3.52000E+01 0.00000E+00
 -1        12 0.00000E+00 3.23000E+01 0.00000E+00
 -1        13 0.00000E+00 2.93500E+01 0.00000E+00
 -1        14 0.00000E+00 2.65500E+01 0.00000E+00
 -1        15 0.00000E+00 2.36000E+01 0.00000E+00
 -1        16 0.00000E+00 2.06500E+01 0.00000E+00
 -1        17 0.00000E+00 1.77000E+01 0.00000E+00
 -1        18 0.00000E+00 1.47500E+01 0.00000E+00
 -1        19 0.00000E+00 1.18000E+01 0.00000E+00
 -1        20 0.00000E+00 8.85000E+00 0.00000E+00
 -1        21 0.00000E+00 5.90000E+00 0.00000E+00
 -1        22 0.00000E+00 2.95000E+00 0.00000E+00
 -1        23 3.15000E+00 5.00000E+01 0.00000E+00
 -1        24 6.15000E+00 5.00000E+01 0.00000E+00
 -1        25 9.15000E+00 5.00000E+01 0.00000E+00
 -1        26 1.21500E+01 5.00000E+01 0.00000E+00
 -1        27 1.51500E+01 5.00000E+01 0.00000E+00
 -1        28 1.81500E+01 5.00000E+01 0.00000E+00
 -1        29 2.11500E+01 5.00000E+01 0.00000E+00
 -1        30 2.41500E+01 5.00000E+01 0.00000E+00
 -1        31 2.71500E+01 5.00000E+01 0.00000E+00
 -1        32 3.01500E+01 5.00000E+01 0.00000E+00
 -1        33 3.31500E+01 5.00000E+01 0.00000E+00
 -1        34 3.61500E+01 5.00000E+01 0.00000E+00
 -1        35 3.91500E+01 5.00000E+01 0.00000E+00
 -1        36 4.21500E+01 5.00000E+01 0.00000E+00
 -1        37 4.51500E+01 5.00000E+01 0.00000E+00
 -1        38 4.81500E+01 5.00000E+01 0.00000E+00
 -1        39 5.11500E+01 5.00000E+01 0.00000E+00
 -1        40 5.41500E+01 5.00000E+01 0.00000E+00
 -1        41 5.71500E+01 5.00000E+01 0.00000E+00
 -1        42 6.01500E+01 5.00000E+01 0.00000E+00
 -1        43 6.31500E+01 5.00000E+01 0.00000E+00
 -1        44 6.61500E+01 5.00000E+01 0.00000E+00
 -1        45 6.91500E+01 5.00000E+01 0.00000E+00
 -1        46 7.21500E+01 5.00000E+01 0.00000E+00
 -1        47 7.51500E+01 5.00000E+01 0.00000E+00
 -1        48 7.81500E+01 5.00000E+01 0.00000E+00
 -1        49 8.11500E+01 5.00000E+01 0.00000E+00
 -1        50 8.41500E+01 5.00000E+01 0.00000E+00
 -1        51 8.71500E+01 5.00000E+01 0.00000E+00
 -1        52 9.01500E+01 5.00000E+01 0.00000E+00
 -1        53 9.31500E+01 5.00000E+01 0.00000E+00
 -1        54 9.61500E+01 5.00000E+01 0.00000E+00
 -1        55 9.91500E+01 5.00000E+01 0.00000E+00
 -1        56 1.02150E+02 5.00000E+01 0.00000E+00
 -1        57 1.05150E+02 5.00000E+01 0.00000E+00
 -1        58 1.08150E+02 5.00000E+01 0.00000E+00
 -1        59 1.11150E+02 5.00000E+01 0.00000E+00
 -1        60 1.14150E+02 5.00000E+01 0.00000E+00
 -1        61 1.17150E+02 5.00000E+01 0.00000E+00
 -1        62 1.20150E+02 5.00000E+01 0.00000E+00
 -1        63 1.23150E+02 5.00000E+01 0.00000E+00
 -1        64 1.26150E+02 5.00000E+01 0.00000E+00
 -1        65 1.29150E+02 5.00000E+01 0.00000E+00
 -1        66 1.32150E+02 5.00000E+01 0.00000E+00
 -1        67 1.35150E+02 5.00000E+01 0.00000E+00
 -1        68 1.38150E+02 5.00000E+01 0.00000E+00
 -1        69 1.41150E+02 5.00000E+01 0.00000E+00
 -1        70 1.44150E+02 5.00000E+01 0.00000E+00
 -1        71 1.47150E+02 5.00000E+01 0.00000E+00
 -1        72 3.15000E+00 0.00000E+00 0.00000E+00
 -1        73 6.15000E+00 0.00000E+00 0.00000E+00
 -1        74 9.15000E+00 0.00000E+00 0.00000E+00
 -1        75 1.21500E+01 0.00000E+00 0.00000E+00
 -1        76 1.51500E+01 0.00000E+00 0.00000E+00
 -1        77 1.81500E+01 0.00000E+00 0.00000E+00
 -1        78 2.11500E+01 0.00000E+00 0.00000E+00
 -1        79 2.41500E+01 0.00000E+00 0.00000E+00
 -1        80 2.71500E+01 0.00000E+00 0.00000E+00
 -1        81 3.01500E+01 0.00000E+00 0.00000E+00
 -1        82 3.31500E+01 0.00000E+00 0.00000E+00
 -1        83 3.61500E+01 0.00000E+00 0.00000E+00
 -1        84 3.91500E+01 0.00000E+00 0.00000E+00
 -1        85 4.21500E+01 0.00000E+00 0.00000E+00
 -1        86 4.51500E+01 0.00000E+00 0.00000E+00
 -1        87 4.81500E+01 0.00000E+00 0.00000E+00
 -1        88 5.11500E+01 0.00000E+00 0.00000E+00
 -1        89 5.41500E+01 0.00000E+00 0.00000E+00
 -1        90 5.71500E+01 0.00000E+00 0.00000E+00
 -1        91 6.01500E+01 0.00000E+00 0.00000E+00
 -1        92 6.31500E+01 0.00000E+00 0.00000E+00
 -1        93 6.61500E+01 0.00000E+00 0.00000E+00
 -1        94 6.91500E+01 0.00000E+00 0.00000E+00
 -1        95 7.21500E+01 0.00000E+00 0.00000E+00
 -1        96 7.51500E+01 0.00000E+00 0.00000E+00
 -1        97 7.81500E+01 0.00000E+00 0.00000E+00
 -1        98 8.11500E+01 0.00000E+00 0.00000E+00
 -1        99 8.41500E+01 0.00000E+00 0.00000E+00
 -1       100 8.71500E+01 0.00000E+00 0.00000E+00
 -1       101 9.01500E+01 0.00000E+00 0.00000E+00
 -1       102 9.31500E+01 0.00000E+00 0.00000E+00
 -1       103 9.61500E+01 0.00000E+00 0.00000E+00
 -1       104 9.91500E+01 0.00000E+00 0.00000E+00
 -1       105 1.02150E+02 0.00000E+00 0.00000E+00
 -1       106 1.05150E+02 0.00000E+00 0.00000E+00
 -1       107 1.08150E+02 0.00000E+00 0.00000E+00
 -1       108 1.11150E+02 0.00000E+00 0.00000E+00
 -1       109 1.14150E+02 0.00000E+00 0.00000E+00
 -1       110 1.17150E+02 0.00000E+00 0.00000E+00
 -1       111 1.20150E+02 0.00000E+00 0.00000E+00
 -1       112 1.23150E+02 0.00000E+00 0.00000E+00
 -1       113 1.26150E+02 0.00000E+00 0.00000E+00
 -1       114 1.29150E+02 0.00000E+00 0.00000E+00
 -1       115 1.32150E+02 0.00000E+00 0.00000E+00
 -1       116 1.35150E+02 0.00000E+00 0.00000E+00
 -1       117 1.38150E+02 0.00000E+00 0.00000E+00
 -1       118 1.41150E+02 0.00000E+00 0.00000E+00
 -1       119 1.44150E+02 0.00000E+00 0.00000E+00
 -1       120 1.47150E+02 0.00000E+00 0.00000E+00
 -1       121 1.50000E+02 2.95000E+00 0.00000E+00
 -1       122 1.50000E+02 5.90000E+00 0.00000E+00
 -1       123 1.50000E+02 8.85000E+00 0.00000E+00
 -1       124 1.50000E+02 1.18000E+01 0.00000E+00
 -1       125 1.50000E+02 1.47500E+01 0.00000E+00
 -1       126 1.50000E+02 1.76500E+01 0.00000E+00
 -1       127 1.50000E+02 2.06000E+01 0.00000E+00
 -1       128 1.50000E+02 2.35500E+01 0.00000E+00
 -1       129 1.50000E+02 2.65000E+01 0.00000E+00
 -1       130 1.50000E+02 2.94500E+01 0.00000E+00
 -1       131 1.50000E+02 3.24000E+01 0.00000E+00
 -1       132 1.50000E+02 3.53000E+01 0.00000E+00
 -1       133 1.50000E+02 3.82500E+01 0.00000E+00
 -1       134 1.50000E+02 4.12000E+01 0.00000E+00
 -1       135 1.50000E+02 4.41500E+01 0.00000E+00
 -1       136 1.50000E+02 4.71000E+01 0.00000E+00
 -1       137 2.73912E+01 2.67468E+01 0.00000E+00
 -1       138 2.69151E+01 2.53399E+01 0.00000E+00
 -1       139 2.60731E+01 2.39612E+01 0.00000E+00
 -1       140 2.50562E+01 2.29094E+01 0.00000E+00
 -1       141 2.37757E+01 2.20568E+01 0.00000E+00
 -1       142 2.23761E+01 2.15141E+01 0.00000E+00
 -1       143 2.07373E+01 2.12767E+01 0.00000E+00
 -1       144 1.92716E+01 2.13940E+01 0.00000E+00
 -1       145 1.77716E+01 2.18537E+01 0.00000E+00
 -1       146 1.62985E+01 2.27210E+01 0.00000E+00
 -1       147 1.52035E+01 2.37679E+01 0.00000E+00
 -1       148 1.43611E+01 2.50225E+01 0.00000E+00
 -1       149 1.37886E+01 2.64997E+01 0.00000E+00
 -1       150 1.35644E+01 2.80238E+01 0.00000E+00
 -1       151 1.36886E+01 2.96105E+01 0.00000E+00
 -1       152 1.41702E+01 3.11331E+01 0.00000E+00
 -1       153 1.49930E+01 3.25182E+01 0.00000E+00
 -1       154 1.61740E+01 3.37300E+01 0.00000E+00
 -1       155 1.74500E+01 3.45457E+01 0.00000E+00
 -1       156 1.90586E+01 3.51115E+01 0.00000E+00
 -1       157 2.19015E+01 3.51446E+01 0.00000E+00
 -1       158 2.32711E+01 3.47281E+01 0.00000E+00
 -1       159 2.44388E+01 3.41015E+01 0.00000E+00
 -1       160 2.54801E+01 3.32535E+01 0.00000E+00
 -1       161 2.63245E+01 3.22454E+01 0.00000E+00
 -1       162 2.70254E+01 3.09571E+01 0.00000E+00
 -1       163 2.74228E+01 2.96528E+01 0.00000E+00
 -1       164 2.59800E+00 4.55250E+01 0.00000E+00
 -1       165 2.59800E+00 4.25750E+01 0.00000E+00
 -1       166 2.59800E+00 3.96250E+01 0.00000E+00
 -1       167 2.59800E+00 3.66750E+01 0.00000E+00
 -1       168 2.59800E+00 3.37750E+01 0.00000E+00
 -1       169 2.59800E+00 3.08250E+01 0.00000E+00
 -1       170 2.59800E+00 2.80250E+01 0.00000E+00
 -1       171 2.59800E+00 2.50750E+01 0.00000E+00
 -1       172 2.59800E+00 2.21250E+01 0.00000E+00
 -1       173 2.59800E+00 1.91750E+01 0.00000E+00
 -1       174 2.59800E+00 1.62250E+01 0.00000E+00
 -1       175 2.59800E+00 1.32750E+01 0.00000E+00
 -1       176 2.59800E+00 1.03250E+01 0.00000E+00
 -1       177 2.59800E+00 7.37500E+00 0.00000E+00
 -1       178 2.59800E+00 4.42500E+00 0.00000E+00
 -1       179 2.87400E+00 2.21250E+00 0.00000E+00
 -1       180 4.65000E+00 4.74020E+01 0.00000E+00
 -1       181 7.65000E+00 4.74020E+01 0.00000E+00
 -1       182 1.06500E+01 4.74020E+01 0.00000E+00
 -1       183 1.36500E+01 4.74020E+01 0.00000E+00
 -1       184 1.66500E+01 4.74020E+01 0.00000E+00
 -1       185 1.96500E+01 4.74020E+01 0.00000E+00
 -1       186 2.26500E+01 4.74020E+01 0.00000E+00
 -1       187 2.56500E+01 4.74020E+01 0.00000E+00
 -1       188 2.86500E+01 4.74020E+01 0.00000E+00
 -1       189 3.16500E+01 4.74020E+01 0.00000E+00
 -1       190 3.46500E+01 4.74020E+01 0.00000E+00
 -1       191 3.76500E+01 4.74020E+01 0.00000E+00
 -1       192 4.06500E+01 4.74020E+01 0.00000E+00
 -1       193 4.36500E+01 4.74020E+01 0.00000E+00
 -1       194 4.66500E+01 4.74020E+01 0.00000E+00
 -1       195 4.96500E+01 4.74020E+01 0.00000E+00
 -1       196 5.26500E+01 4.74020E+01 0.00000E+00
 -1       197 5.56500E+01 4.74020E+01 0.00000E+00
 -1       198 5.86500E+01 4.74020E+01 0.00000E+00
 -1       199 6.16500E+01 4.74020E+01 0.00000E+00
 -1       200 6.46500E+01 4.74020E+01 0.00000E+00
 -1       201 6.76500E+01 4.74020E+01 0.00000E+00
 -1       202 7.06500E+01 4.74020E+01 0.00000E+00
 -1       203 7.36500E+01 4.74020E+01 0.00000E+00
 -1       204 7.66500E+01 4.74020E+01 0.00000E+00
 -1       205 7.96500E+01 4.74020E+01 0.00000E+00
 -1       206 8.26500E+01 4.74020E+01 0.00000E+00
 -1       207 8.56500E+01 4.74020E+01 0.00000E+00
 -1       208 8.86500E+01 4.74020E+01 0.00000E+00
 -1       209 9.16500E+01 4.74020E+01 0.00000E+00
 -1       210 9.46500E+01 4.74020E+01 0.00000E+00
 -1       211 9.76500E+01 4.74020E+01 0.00000E+00
 -1       212 1.00650E+02 4.74020E+01 0.00000E+00
 -1       213 1.03650E+02 4.74020E+01 0.00000E+00
 -1       214 1.06650E+02 4.74020E+01 0.00000E+00
 -1       215 1.09650E+02 4.74020E+01 0.00000E+00
 -1       216 1.12650E+02 4.74020E+01 0.00000E+00
 -1       217 1.15650E+02 4.74020E+01 0.00000E+00
 -1       218 1.18650E+02 4.74020E+01 0.00000E+00
 -1       219 1.21650E+02 4.74020E+01 0.00000E+00
 -1       220 1.24650E+02 4.74020E+01 0.00000E+00
 -1       221 1.27650E+02 4.74020E+01 0.00000E+00
 -1       222 1.30650E+02 4.74020E+01 0.00000E+00
 -1       223 1.33650E+02 4.74020E+01 0.00000E+00
 -1       224 1.36650E+02 4.74020E+01 0.00000E+00
 -1       225 1.39650E+02 4.74020E+01 0.00000E+00
 -1       226 1.42650E+02 4.74020E+01 0.00000E+00
 -1       227 1.45650E+02 4.74020E+01 0.00000E+00
 -1       228 5.87400E+00 2.21250E+00 0.00000E+00
 -1       229 8.87400E+00 2.21250E+00 0.00000E+00
 -1       230 1.18740E+01 2.21250E+00 0.00000E+00
 -1       231 1.48740E+01 2.21250E+00 0.00000E+00
 -1       232 1.78740E+01 2.21250E+00 0.00000E+00
 -1       233 2.08740E+01 2.21250E+00 0.00000E+00
 -1       234 2.38740E+01 2.21250E+00 0.00000E+00
 -1       235 2.68740E+01 2.21250E+00 0.00000E+00
 -1       236 2.98740E+01 2.21250E+00 0.00000E+00
 -1       237 3.28740E+01 2.21250E+00 0.00000E+00
 -1       238 3.58740E+01 2.21250E+00 0.00000E+00
 -1       239 3.88740E+01 2.21250E+00 0.00000E+00
 -1       240 4.18740E+01 2.21250E+00 0.00000E+00
 -1       241 4.48740E+01 2.21250E+00 0.00000E+00
 -1       242 4.78740E+01 2.21250E+00 0.00000E+00
 -1       243 5.08740E+01 2.21250E+00 0.00000E+00
 -1       244 5.38740E+01 2.21250E+00 0.00000E+00
 -1       245 5.68740E+01 2.21250E+00 0.00000E+00
 -1       246 5.98740E+01 2.21250E+00 0.00000E+00
 -1       247 6.28740E+01 2.21250E+00 0.00000E+00
 -1       248 6.58740E+01 2.21250E+00 0.00000E+00
 -1       249 6.88740E+01 2.21250E+00 0.00000E+00
 -1       250 7.18740E+01 2.21250E+00 0.00000E+00
 -1       251 7.48740E+01 2.21250E+00 0.00000E+00
 -1       252 7.78740E+01 2.21250E+00 0.00000E+00
 -1       253 8.08740E+01 2.21250E+00 0.00000E+00
 -1       254 8.38740E+01 2.21250E+00 0.00000E+00
 -1       255 8.68740E+01 2.21250E+00 0.00000E+00
 -1       256 8.98740E+01 2.21250E+00 0.00000E+00
 -1       257 9.28740E+01 2.21250E+00 0.00000E+00
 -1       258 9.58740E+01 2.21250E+00 0.00000E+00
 -1       259 9.88740E+01 2.21250E+00 0.00000E+00
 -1       260 1.01874E+02 2.21250E+00 0.00000E+00
 -1       261 1.04874E+02 2.21250E+00 0.00000E+00
 -1       262 1.07874E+02 2.21250E+00 0.00000E+00
 -1       263 1.10874E+02 2.21250E+00 0.00000E+00
 -1       264 1.13874E+02 2.21250E+00 0.00000E+00
 -1       265 1.16874E+02 2.21250E+00 0.00000E+00
 -1       266 1.19874E+02 2.21250E+00 0.00000E+00
 -1       267 1.22874E+02 2.21250E+00 0.00000E+00
 -1       268 1.25874E+02 2.21250E+00 0.00000E+00
 -1       269 1.28874E+02 2.21250E+00 0.00000E+00
 -1       270 1.31874E+02 2.21250E+00 0.00000E+00
 -1       271 1.34874E+02 2.21250E+00 0.00000E+00
 -1       272 1.37874E+02 2.21250E+00 0.00000E+00
 -1       273 1.40874E+02 2.21250E+00 0.00000E+00
 -1       274 1.43874E+02 2.21250E+00 0.00000E+00
 -1       275 1.46874E+02 2.21250E+00 0.00000E+00
 -1       276 1.47402E+02 4.42500E+00 0.00000E+00
 -1       277 1.47402E+02 7.37500E+00 0.00000E+00
 -1       278 1.47402E+02 1.03250E+01 0.00000E+00
 -1       279 1.47402E+02 1.32750E+01 0.00000E+00
 -1       280 1.47402E+02 1.61750E+01 0.00000E+00
 -1       281 1.47402E+02 1.91250E+01 0.00000E+00
 -1       282 1.47402E+02 2.20750E+01 0.00000E+00
 -1       283 1.47402E+02 2.50250E+01 0.00000E+00
 -1       284 1.47402E+02 2.79750E+01 0.00000E+00
 -1       285 1.47402E+02 3.09250E+01 0.00000E+00
 -1       286 1.47402E+02 3.38250E+01 0.00000E+00
 -1       287 1.47402E+02 3.67750E+01 0.00000E+00
 -1       288 1.47402E+02 3.97250E+01 0.00000E+00
 -1       289 1.47402E+02 4.26750E+01 0.00000E+00
 -1       290 1.46526E+02 4.50385E+01 0.00000E+00
 -1       291 2.87639E+01 2.73683E+01 0.00000E+00
 -1       292 2.83016E+01 2.56548E+01 0.00000E+00
 -1       293 2.77434E+01 2.38877E+01 0.00000E+00
 -1       294 2.64363E+01 2.25925E+01 0.00000E+00
 -1       295 2.51808E+01 2.13345E+01 0.00000E+00
 -1       296 2.35445E+01 2.05770E+01 0.00000E+00
 -1       297 2.17546E+01 2.00297E+01 0.00000E+00
 -1       298 1.99077E+01 2.01268E+01 0.00000E+00
 -1       299 1.81172E+01 2.03044E+01 0.00000E+00
 -1       300 1.62499E+01 2.09538E+01 0.00000E+00
 -1       301 1.47395E+01 2.21864E+01 0.00000E+00
 -1       302 1.37062E+01 2.36727E+01 0.00000E+00
 -1       303 1.27100E+01 2.52322E+01 0.00000E+00
 -1       304 1.23112E+01 2.70609E+01 0.00000E+00
 -1       305 1.21672E+01 2.89314E+01 0.00000E+00
 -1       306 1.26137E+01 3.07880E+01 0.00000E+00
 -1       307 1.33231E+01 3.25732E+01 0.00000E+00
 -1       308 1.45952E+01 3.40872E+01 0.00000E+00
 -1       309 1.61590E+01 3.51594E+01 0.00000E+00
 -1       310 1.77686E+01 3.62094E+01 0.00000E+00
 -1       311 1.96678E+01 3.64816E+01 0.00000E+00
 -1       312 2.13458E+01 3.64163E+01 0.00000E+00
 -1       313 2.29879E+01 3.62566E+01 0.00000E+00
 -1       314 2.44282E+01 3.54831E+01 0.00000E+00
 -1       315 2.57250E+01 3.46176E+01 0.00000E+00
 -1       316 2.68318E+01 3.35280E+01 0.00000E+00
 -1       317 2.78872E+01 3.22607E+01 0.00000E+00
 -1       318 2.83839E+01 3.06583E+01 0.00000E+00
 -1       319 2.86978E+01 2.90836E+01 0.00000E+00
 -1       320 5.19600E+00 4.11000E+01 0.00000E+00
 -1       321 5.19600E+00 4.40500E+01 0.00000E+00
 -1       322 4.98339E+00 3.52250E+01 0.00000E+00
 -1       323 4.98339E+00 3.22750E+01 0.00000E+00
 -1       324 4.98339E+00 2.94750E+01 0.00000E+00
 -1       325 4.98339E+00 2.65250E+01 0.00000E+00
 -1       326 4.98339E+00 2.35750E+01 0.00000E+00
 -1       327 4.98339E+00 2.06250E+01 0.00000E+00
 -1       328 4.98339E+00 1.76750E+01 0.00000E+00
 -1       329 4.98339E+00 1.47250E+01 0.00000E+00
 -1       330 4.98339E+00 1.17750E+01 0.00000E+00
 -1       331 4.98339E+00 8.82500E+00 0.00000E+00
 -1       332 4.98339E+00 5.87500E+00 0.00000E+00
 -1       333 5.42869E+00 4.04375E+00 0.00000E+00
 -1       334 8.42869E+00 4.04375E+00 0.00000E+00
 -1       335 9.15000E+00 4.48040E+01 0.00000E+00
 -1       336 1.21500E+01 4.48040E+01 0.00000E+00
 -1       337 1.51500E+01 4.48040E+01 0.00000E+00
 -1       338 1.81500E+01 4.48040E+01 0.00000E+00
 -1       339 2.11500E+01 4.48040E+01 0.00000E+00
 -1       340 2.41500E+01 4.48040E+01 0.00000E+00
 -1       341 2.71500E+01 4.48040E+01 0.00000E+00
 -1       342 3.01500E+01 4.48040E+01 0.00000E+00
 -1       343 3.31500E+01 4.48040E+01 0.00000E+00
 -1       344 3.61500E+01 4.48040E+01 0.00000E+00
 -1       345 3.91500E+01 4.48040E+01 0.00000E+00
 -1       346 4.21500E+01 4.48040E+01 0.00000E+00
 -1       347 4.51500E+01 4.48040E+01 0.00000E+00
 -1       348 4.81500E+01 4.48040E+01 0.00000E+00
 -1       349 5.11500E+01 4.48040E+01 0.00000E+00
 -1       350 5.41500E+01 4.48040E+01 0.00000E+00
 -1       351 5.71500E+01 4.48040E+01 0.00000E+00
 -1       352 6.01500E+01 4.48040E+01 0.00000E+00
 -1       353 6.31500E+01 4.48040E+01 0.00000E+00
 -1       354 6.61500E+01 4.48040E+01 0.00000E+00
 -1       355 6.91500E+01 4.48040E+01 0.00000E+00
 -1       356 7.21500E+01 4.48040E+01 0.00000E+00
 -1       357 7.51500E+01 4.48040E+01 0.00000E+00
 -1       358 7.81500E+01 4.48040E+01 0.00000E+00
 -1       359 8.11500E+01 4.48040E+01 0.00000E+00
 -1       360 8.41500E+01 4.48040E+01 0.00000E+00
 -1       361 8.71500E+01 4.48040E+01 0.00000E+00
 -1       362 9.01500E+01 4.48040E+01 0.00000E+00
 -1       363 9.31500E+01 4.48040E+01 0.00000E+00
 -1       364 9.61500E+01 4.48040E+01 0.00000E+00
 -1       365 9.91500E+01 4.48040E+01 0.00000E+00
 -1       366 1.02150E+02 4.48040E+01 0.00000E+00
 -1       367 1.05150E+02 4.48040E+01 0.00000E+00
 -1       368 1.08150E+02 4.48040E+01 0.00000E+00
 -1       369 1.11150E+02 4.48040E+01 0.00000E+00
 -1       370 1.14150E+02 4.48040E+01 0.00000E+00
 -1       371 1.17150E+02 4.48040E+01 0.00000E+00
 -1       372 1.20150E+02 4.48040E+01 0.00000E+00
 -1       373 1.23150E+02 4.48040E+01 0.00000E+00
 -1       374 1.26150E+02 4.48040E+01 0.00000E+00
 -1       375 1.29150E+02 4.48040E+01 0.00000E+00
 -1       376 1.32150E+02 4.48040E+01 0.00000E+00
 -1       377 1.35150E+02 4.48040E+01 0.00000E+00
 -1       378 1.38150E+02 4.48040E+01 0.00000E+00
 -1       379 1.41150E+02 4.48040E+01 0.00000E+00
 -1       380 1.43838E+02 4.49212E+01 0.00000E+00
 -1       381 1.14287E+01 4.04375E+00 0.00000E+00
 -1       382 1.44287E+01 4.04375E+00 0.00000E+00
 -1       383 1.74287E+01 4.04375E+00 0.00000E+00
 -1       384 2.04287E+01 4.04375E+00 0.00000E+00
 -1       385 2.34287E+01 4.04375E+00 0.00000E+00
 -1       386 2.64287E+01 4.04375E+00 0.00000E+00
 -1       387 2.94287E+01 4.04375E+00 0.00000E+00
 -1       388 3.24287E+01 4.04375E+00 0.00000E+00
 -1       389 3.54287E+01 4.04375E+00 0.00000E+00
 -1       390 3.84287E+01 4.04375E+00 0.00000E+00
 -1       391 4.14287E+01 4.04375E+00 0.00000E+00
 -1       392 4.44287E+01 4.04375E+00 0.00000E+00
 -1       393 4.74287E+01 4.04375E+00 0.00000E+00
 -1       394 5.04287E+01 4.04375E+00 0.00000E+00
 -1       395 5.34287E+01 4.04375E+00 0.00000E+00
 -1       396 5.64287E+01 4.04375E+00 0.00000E+00
 -1       397 5.94287E+01 4.04375E+00 0.00000E+00
 -1       398 6.24287E+01 4.04375E+00 0.00000E+00
 -1       399 6.54287E+01 4.04375E+00 0.00000E+00
 -1       400 6.84287E+01 4.04375E+00 0.00000E+00
 -1       401 7.14287E+01 4.04375E+00 0.00000E+00
 -1       402 7.44287E+01 4.04375E+00 0.00000E+00
 -1       403 7.74287E+01 4.04375E+00 0.00000E+00
 -1       404 8.04287E+01 4.04375E+00 0.00000E+00
 -1       405 8.34287E+01 4.04375E+00 0.00000E+00
 -1       406 8.64287E+01 4.04375E+00 0.00000E+00
 -1       407 8.94287E+01 4.04375E+00 0.00000E+00
 -1       408 9.24287E+01 4.04375E+00 0.00000E+00
 -1       409 9.54287E+01 4.04375E+00 0.00000E+00
 -1       410 9.84287E+01 4.04375E+00 0.00000E+00
 -1       411 1.01429E+02 4.04375E+00 0.00000E+00
 -1       412 1.04429E+02 4.04375E+00 0.00000E+00
 -1       413 1.07429E+02 4.04375E+00 0.00000E+00
 -1       414 1.10429E+02 4.04375E+00 0.00000E+00
 -1       415 1.13429E+02 4.04375E+00 0.00000E+00
 -1       416 1.16429E+02 4.04375E+00 0.00000E+00
 -1       417 1.19429E+02 4.04375E+00 0.00000E+00
 -1       418 1.22429E+02 4.04375E+00 0.00000E+00
 -1       419 1.25429E+02 4.04375E+00 0.00000E+00
 -1       420 1.28429E+02 4.04375E+00 0.00000E+00
 -1       421 1.31429E+02 4.04375E+00 0.00000E+00
 -1       422 1.34429E+02 4.04375E+00 0.00000E+00
 -1       423 1.37429E+02 4.04375E+00 0.00000E+00
 -1       424 1.40429E+02 4.04375E+00 0.00000E+00
 -1       425 1.43429E+02 4.04375E+00 0.00000E+00
 -1       426 1.45415E+02 4.23438E+00 0.00000E+00
 -1       427 1.44804E+02 1.18000E+01 0.00000E+00
 -1       428 1.44804E+02 8.85000E+00 0.00000E+00
 -1       429 1.45110E+02 6.54219E+00 0.00000E+00
 -1       430 1.44804E+02 1.47000E+01 0.00000E+00
 -1       431 1.44804E+02 1.76500E+01 0.00000E+00
 -1       432 1.44804E+02 2.06000E+01 0.00000E+00
 -1       433 1.44804E+02 2.35500E+01 0.00000E+00
 -1       434 1.44804E+02 2.65000E+01 0.00000E+00
 -1       435 1.44804E+02 2.94500E+01 0.00000E+00
 -1       436 1.44804E+02 3.23500E+01 0.00000E+00
 -1       437 1.44804E+02 3.53000E+01 0.00000E+00
 -1       438 1.44804E+02 3.82500E+01 0.00000E+00
 -1       439 1.44804E+02 4.12000E+01 0.00000E+00
 -1       440 2.94981E+01 2.43051E+01 0.00000E+00
 -1       441 3.00261E+01 2.82759E+01 0.00000E+00
 -1       442 2.99604E+01 2.60186E+01 0.00000E+00
 -1       443 2.81791E+01 2.21408E+01 0.00000E+00
 -1       444 2.69235E+01 2.08827E+01 0.00000E+00
 -1       445 5.19600E+00 3.81500E+01 0.00000E+00
 -1       446 2.31020E+01 1.88234E+01 0.00000E+00
 -1       447 2.07455E+01 1.84492E+01 0.00000E+00
 -1       448 1.89550E+01 1.86268E+01 0.00000E+00
 -1       449 1.66203E+01 1.90091E+01 0.00000E+00
 -1       450 1.46222E+01 2.05010E+01 0.00000E+00
 -1       451 1.30898E+01 2.21418E+01 0.00000E+00
 -1       452 1.20936E+01 2.37013E+01 0.00000E+00
 -1       453 1.09986E+01 2.58168E+01 0.00000E+00
 -1       454 1.07798E+01 2.78838E+01 0.00000E+00
 -1       455 1.11302E+01 3.01627E+01 0.00000E+00
 -1       456 1.15303E+01 3.22521E+01 0.00000E+00
 -1       457 1.29667E+01 3.41640E+01 0.00000E+00
 -1       458 1.45494E+01 3.58306E+01 0.00000E+00
 -1       459 1.61183E+01 3.69805E+01 0.00000E+00
 -1       460 1.84868E+01 3.79603E+01 0.00000E+00
 -1       461 2.05572E+01 3.77441E+01 0.00000E+00
 -1       462 2.23004E+01 3.77099E+01 0.00000E+00
 -1       463 2.45195E+01 3.73808E+01 0.00000E+00
 -1       464 2.58163E+01 3.65154E+01 0.00000E+00
 -1       465 2.74816E+01 3.52950E+01 0.00000E+00
 -1       466 2.85371E+01 3.40277E+01 0.00000E+00
 -1       467 2.93736E+01 3.18433E+01 0.00000E+00
 -1       468 2.98942E+01 3.01407E+01 0.00000E+00
 -1       469 2.50128E+01 1.95514E+01 0.00000E+00
 -1       470 9.92869E+00 6.64175E+00 0.00000E+00
 -1       471 7.36878E+00 3.08750E+01 0.00000E+00
 -1       472 7.36878E+00 3.38250E+01 0.00000E+00
 -1       473 7.36878E+00 2.50500E+01 0.00000E+00
 -1       474 7.36878E+00 2.21000E+01 0.00000E+00
 -1       475 7.36878E+00 1.91500E+01 0.00000E+00
 -1       476 7.36878E+00 1.62000E+01 0.00000E+00
 -1       477 7.36878E+00 1.32500E+01 0.00000E+00
 -1       478 7.36878E+00 1.03000E+01 0.00000E+00
 -1       479 6.70604E+00 6.43437E+00 0.00000E+00
 -1       480 1.29287E+01 6.64175E+00 0.00000E+00
 -1       481 1.06500E+01 4.22060E+01 0.00000E+00
 -1       482 1.74834E+01 1.69601E+01 0.00000E+00
 -1       483 1.36500E+01 4.22060E+01 0.00000E+00
 -1       484 1.66500E+01 4.22060E+01 0.00000E+00
 -1       485 1.96500E+01 4.22060E+01 0.00000E+00
 -1       486 2.26500E+01 4.22060E+01 0.00000E+00
 -1       487 2.56500E+01 4.22060E+01 0.00000E+00
 -1       488 2.86500E+01 4.22060E+01 0.00000E+00
 -1       489 3.16500E+01 4.22060E+01 0.00000E+00
 -1       490 3.46500E+01 4.22060E+01 0.00000E+00
 -1       491 3.76500E+01 4.22060E+01 0.00000E+00
 -1       492 4.06500E+01 4.22060E+01 0.00000E+00
 -1       493 4.36500E+01 4.22060E+01 0.00000E+00
 -1       494 4.66500E+01 4.22060E+01 0.00000E+00
 -1       495 4.96500E+01 4.22060E+01 0.00000E+00
 -1       496 5.26500E+01 4.22060E+01 0.00000E+00
 -1       497 5.56500E+01 4.22060E+01 0.00000E+00
 -1       498 5.86500E+01 4.22060E+01 0.00000E+00
 -1       499 6.16500E+01 4.22060E+01 0.00000E+00
 -1       500 6.46500E+01 4.22060E+01 0.00000E+00
 -1       501 6.76500E+01 4.22060E+01 0.00000E+00
 -1       502 7.06500E+01 4.22060E+01 0.00000E+00
 -1       503 7.36500E+01 4.22060E+01 0.00000E+00
 -1       504 7.66500E+01 4.22060E+01 0.00000E+00
 -1       505 7.96500E+01 4.22060E+01 0.00000E+00
 -1       506 8.26500E+01 4.22060E+01 0.00000E+00
 -1       507 8.56500E+01 4.22060E+01 0.00000E+00
 -1       508 8.86500E+01 4.22060E+01 0.00000E+00
 -1       509 9.16500E+01 4.22060E+01 0.00000E+00
 -1       510 9.46500E+01 4.22060E+01 0.00000E+00
 -1       511 9.76500E+01 4.22060E+01 0.00000E+00
 -1       512 1.00650E+02 4.22060E+01 0.00000E+00
 -1       513 1.03650E+02 4.22060E+01 0.00000E+00
 -1       514 1.06650E+02 4.22060E+01 0.00000E+00
 -1       515 1.09650E+02 4.22060E+01 0.00000E+00
 -1       516 1.12650E+02 4.22060E+01 0.00000E+00
 -1       517 1.15650E+02 4.22060E+01 0.00000E+00
 -1       518 1.18650E+02 4.22060E+01 0.00000E+00
 -1       519 1.21650E+02 4.22060E+01 0.00000E+00
 -1       520 1.24650E+02 4.22060E+01 0.00000E+00
 -1       521 1.27650E+02 4.22060E+01 0.00000E+00
 -1       522 1.30650E+02 4.22060E+01 0.00000E+00
 -1       523 1.33650E+02 4.22060E+01 0.00000E+00
 -1       524 1.36650E+02 4.22060E+01 0.00000E+00
 -1       525 1.39650E+02 4.22060E+01 0.00000E+00
 -1       526 3.13043E+01 2.47369E+01 0.00000E+00
 -1       527 1.89287E+01 6.64175E+00 0.00000E+00
 -1       528 2.19287E+01 6.64175E+00 0.00000E+00
 -1       529 2.49287E+01 6.64175E+00 0.00000E+00
 -1       530 2.79287E+01 6.64175E+00 0.00000E+00
 -1       531 3.09287E+01 6.64175E+00 0.00000E+00
 -1       532 3.39287E+01 6.64175E+00 0.00000E+00
 -1       533 3.69287E+01 6.64175E+00 0.00000E+00
 -1       534 3.99287E+01 6.64175E+00 0.00000E+00
 -1       535 4.29287E+01 6.64175E+00 0.00000E+00
 -1       536 4.59287E+01 6.64175E+00 0.00000E+00
 -1       537 4.89287E+01 6.64175E+00 0.00000E+00
 -1       538 5.19287E+01 6.64175E+00 0.00000E+00
 -1       539 5.49287E+01 6.64175E+00 0.00000E+00
 -1       540 5.79287E+01 6.64175E+00 0.00000E+00
 -1       541 6.09287E+01 6.64175E+00 0.00000E+00
 -1       542 6.39287E+01 6.64175E+00 0.00000E+00
 -1       543 6.69287E+01 6.64175E+00 0.00000E+00
 -1       544 6.99287E+01 6.64175E+00 0.00000E+00
 -1       545 7.29287E+01 6.64175E+00 0.00000E+00
 -1       546 7.59287E+01 6.64175E+00 0.00000E+00
 -1       547 7.89287E+01 6.64175E+00 0.00000E+00
 -1       548 8.19287E+01 6.64175E+00 0.00000E+00
 -1       549 8.49287E+01 6.64175E+00 0.00000E+00
 -1       550 8.79287E+01 6.64175E+00 0.00000E+00
 -1       551 9.09287E+01 6.64175E+00 0.00000E+00
 -1       552 9.39287E+01 6.64175E+00 0.00000E+00
 -1       553 9.69287E+01 6.64175E+00 0.00000E+00
 -1       554 9.99287E+01 6.64175E+00 0.00000E+00
 -1       555 1.02929E+02 6.64175E+00 0.00000E+00
 -1       556 1.05929E+02 6.64175E+00 0.00000E+00
 -1       557 1.08929E+02 6.64175E+00 0.00000E+00
 -1       558 1.11929E+02 6.64175E+00 0.00000E+00
 -1       559 1.14929E+02 6.64175E+00 0.00000E+00
 -1       560 1.17929E+02 6.64175E+00 0.00000E+00
 -1       561 1.20929E+02 6.64175E+00 0.00000E+00
 -1       562 1.23929E+02 6.64175E+00 0.00000E+00
 -1       563 1.26929E+02 6.64175E+00 0.00000E+00
 -1       564 1.29929E+02 6.64175E+00 0.00000E+00
 -1       565 1.32929E+02 6.64175E+00 0.00000E+00
 -1       566 1.35929E+02 6.64175E+00 0.00000E+00
 -1       567 1.38929E+02 6.64175E+00 0.00000E+00
 -1       568 1.41929E+02 6.64175E+00 0.00000E+00
 -1       569 1.42206E+02 1.61750E+01 0.00000E+00
 -1       570 1.42206E+02 1.91250E+01 0.00000E+00
 -1       571 1.42206E+02 1.03250E+01 0.00000E+00
 -1       572 1.42206E+02 1.32500E+01 0.00000E+00
 -1       573 1.42206E+02 2.20750E+01 0.00000E+00
 -1       574 1.42206E+02 2.50250E+01 0.00000E+00
 -1       575 1.42206E+02 2.79750E+01 0.00000E+00
 -1       576 1.42206E+02 3.08750E+01 0.00000E+00
 -1       577 1.42206E+02 3.38250E+01 0.00000E+00
 -1       578 1.42206E+02 3.67750E+01 0.00000E+00
 -1       579 1.42206E+02 3.97250E+01 0.00000E+00
 -1       580 3.16710E+01 2.93293E+01 0.00000E+00
 -1       581 1.59287E+01 6.64175E+00 0.00000E+00
 -1       582 3.03031E+01 2.23303E+01 0.00000E+00
 -1       583 7.74896E+00 3.96250E+01 0.00000E+00