    1C
    1UUSER                                                              
    1UDATE              27.october.2022                                 
    1UTIME              01:08:15                                        
    1UHOST                                                              
    1UPGM               CalculiX                                        
    1UVERSION           Version 2.17                             
    1UCOMPILETIME       Thu Jul 23 21:43:50 CEST 2020                    
    1UDIR                                                               
    1UDBN                                                               
    1UMAT    1SOLIDMATERIAL                                             
    2C                          4231                                     1
 -1         1 8.24283E+01 1.72727E+01 0.00000E+00
 -1         2 8.50961E+01 1.17744E+01 0.00000E+00
 -1         3 1.50000E+02 0.00000E+00 0.00000E+00
 -1         4 1.50000E+02 5.00000E+01 0.00000E+00
 -1         5 0.00000E+00 0.00000E+00 0.00000E+00
 -1         6 0.00000E+00 5.00000E+01 0.00000E+00
 -1         7 0.00000E+00 4.70500E+01 0.00000E+00
 -1         8 0.00000E+00 4.41000E+01 0.00000E+00
 -1         9 0.00000E+00 4.11500E+01 0.00000E+00
 -1        10 0.00000E+00 3.82000E+01 0.00000E+00
 -1        11 0.00000E+00 3.52500E+01 0.00000E+00
 -1        12 0.00000E+00 3.23500E+01 0.00000E+00
 -1        13 0.00000E+00 2.94000E+01 0.00000E+00
 -1        14 0.00000E+00 2.64500E+01 0.00000E+00
 -1        15 0.00000E+00 2.35000E+01 0.00000E+00
 -1        16 0.00000E+00 2.05500E+01 0.00000E+00
 -1        17 0.00000E+00 1.76000E+01 0.00000E+00
 -1        18 0.00000E+00 1.47000E+01 0.00000E+00
 -1        19 0.00000E+00 1.17500E+01 0.00000E+00
 -1        20 0.00000E+00 8.80000E+00 0.00000E+00
 -1        21 0.00000E+00 5.85000E+00 0.00000E+00
 -1        22 0.00000E+00 2.90000E+00 0.00000E+00
 -1        23 3.15000E+00 5.00000E+01 0.00000E+00
 -1        24 6.15000E+00 5.00000E+01 0.00000E+00
 -1        25 9.15000E+00 5.00000E+01 0.00000E+00
 -1        26 1.21500E+01 5.00000E+01 0.00000E+00
 -1        27 1.51500E+01 5.00000E+01 0.00000E+00
 -1        28 1.81500E+01 5.00000E+01 0.00000E+00
 -1        29 2.11500E+01 5.00000E+01 0.00000E+00
 -1        30 2.41500E+01 5.00000E+01 0.00000E+00
 -1        31 2.71500E+01 5.00000E+01 0.00000E+00
 -1        32 3.01500E+01 5.00000E+01 0.00000E+00
 -1        33 3.31500E+01 5.00000E+01 0.00000E+00
 -1        34 3.61500E+01 5.00000E+01 0.00000E+00
 -1        35 3.91500E+01 5.00000E+01 0.00000E+00
 -1        36 4.21500E+01 5.00000E+01 0.00000E+00
 -1        37 4.51500E+01 5.00000E+01 0.00000E+00
 -1        38 4.81500E+01 5.00000E+01 0.00000E+00
 -1        39 5.11500E+01 5.00000E+01 0.00000E+00
 -1        40 5.41500E+01 5.00000E+01 0.00000E+00
 -1        41 5.71500E+01 5.00000E+01 0.00000E+00
 -1        42 6.01500E+01 5.00000E+01 0.00000E+00
 -1        43 6.31500E+01 5.00000E+01 0.00000E+00
 -1        44 6.61500E+01 5.00000E+01 0.00000E+00
 -1        45 6.91500E+01 5.00000E+01 0.00000E+00
 -1        46 7.21500E+01 5.00000E+01 0.00000E+00
 -1        47 7.51500E+01 5.00000E+01 0.00000E+00
 -1        48 7.81500E+01 5.00000E+01 0.00000E+00
 -1        49 8.11500E+01 5.00000E+01 0.00000E+00
 -1        50 8.41500E+01 5.00000E+01 0.00000E+00
 -1        51 8.71500E+01 5.00000E+01 0.00000E+00
 -1        52 9.01500E+01 5.00000E+01 0.00000E+00
 -1        53 9.31500E+01 5.00000E+01 0.00000E+00
 -1        54 9.61500E+01 5.00000E+01 0.00000E+00
 -1        55 9.91500E+01 5.00000E+01 0.00000E+00
 -1        56 1.02150E+02 5.00000E+01 0.00000E+00
 -1        57 1.05150E+02 5.00000E+01 0.00000E+00
 -1        58 1.08150E+02 5.00000E+01 0.00000E+00
 -1        59 1.11150E+02 5.00000E+01 0.00000E+00
 -1        60 1.14150E+02 5.00000E+01 0.00000E+00
 -1        61 1.17150E+02 5.00000E+01 0.00000E+00
 -1        62 1.20150E+02 5.00000E+01 0.00000E+00
 -1        63 1.23150E+02 5.00000E+01 0.00000E+00
 -1        64 1.26150E+02 5.00000E+01 0.00000E+00
 -1        65 1.29150E+02 5.00000E+01 0.00000E+00
 -1        66 1.32150E+02 5.00000E+01 0.00000E+00
 -1        67 1.35150E+02 5.00000E+01 0.00000E+00
 -1        68 1.38150E+02 5.00000E+01 0.00000E+00
 -1        69 1.41150E+02 5.00000E+01 0.00000E+00
 -1        70 1.44150E+02 5.00000E+01 0.00000E+00
 -1        71 1.47150E+02 5.00000E+01 0.00000E+00
 -1        72 3.00000E+00 0.00000E+00 0.00000E+00
 -1        73 6.00000E+00 0.00000E+00 0.00000E+00
 -1        74 9.00000E+00 0.00000E+00 0.00000E+00
 -1        75 1.20000E+01 0.00000E+00 0.00000E+00
 -1        76 1.50000E+01 0.00000E+00 0.00000E+00
 -1        77 1.80000E+01 0.00000E+00 0.00000E+00
 -1        78 2.10000E+01 0.00000E+00 0.00000E+00
 -1        79 2.40000E+01 0.00000E+00 0.00000E+00
 -1        80 2.70000E+01 0.00000E+00 0.00000E+00
 -1        81 3.00000E+01 0.00000E+00 0.00000E+00
 -1        82 3.30000E+01 0.00000E+00 0.00000E+00
 -1        83 3.60000E+01 0.00000E+00 0.00000E+00
 -1        84 3.90000E+01 0.00000E+00 0.00000E+00
 -1        85 4.20000E+01 0.00000E+00 0.00000E+00
 -1        86 4.50000E+01 0.00000E+00 0.00000E+00
 -1        87 4.80000E+01 0.00000E+00 0.00000E+00
 -1        88 5.10000E+01 0.00000E+00 0.00000E+00
 -1        89 5.40000E+01 0.00000E+00 0.00000E+00
 -1        90 5.70000E+01 0.00000E+00 0.00000E+00
 -1        91 6.00000E+01 0.00000E+00 0.00000E+00
 -1        92 6.30000E+01 0.00000E+00 0.00000E+00
 -1        93 6.60000E+01 0.00000E+00 0.00000E+00
 -1        94 6.90000E+01 0.00000E+00 0.00000E+00
 -1        95 7.18500E+01 0.00000E+00 0.00000E+00
 -1        96 7.41000E+01 0.00000E+00 0.00000E+00
 -1        97 7.63500E+01 0.00000E+00 0.00000E+00
 -1        98 7.84500E+01 0.00000E+00 0.00000E+00
 -1        99 8.04000E+01 0.00000E+00 0.00000E+00
 -1       100 8.23500E+01 0.00000E+00 0.00000E+00
 -1       101 8.50500E+01 0.00000E+00 0.00000E+00
 -1       102 8.76000E+01 0.00000E+00 0.00000E+00
 -1       103 9.01500E+01 0.00000E+00 0.00000E+00
 -1       104 9.31500E+01 0.00000E+00 0.00000E+00
 -1       105 9.61500E+01 0.00000E+00 0.00000E+00
 -1       106 9.91500E+01 0.00000E+00 0.00000E+00
 -1       107 1.02150E+02 0.00000E+00 0.00000E+00
 -1       108 1.05150E+02 0.00000E+00 0.00000E+00
 -1       109 1.08150E+02 0.00000E+00 0.00000E+00
 -1       110 1.11150E+02 0.00000E+00 0.00000E+00
 -1       111 1.14150E+02 0.00000E+00 0.00000E+00
 -1       112 1.17150E+02 0.00000E+00 0.00000E+00
 -1       113 1.20150E+02 0.00000E+00 0.00000E+00
 -1       114 1.23150E+02 0.00000E+00 0.00000E+00
 -1       115 1.26150E+02 0.00000E+00 0.00000E+00
 -1       116 1.29150E+02 0.00000E+00 0.00000E+00
 -1       117 1.32150E+02 0.00000E+00 0.00000E+00
 -1       118 1.35150E+02 0.00000E+00 0.00000E+00
 -1       119 1.38150E+02 0.00000E+00 0.00000E+00
 -1       120 1.41150E+02 0.00000E+00 0.00000E+00
 -1       121 1.44150E+02 0.00000E+00 0.00000E+00
 -1       122 1.47150E+02 0.00000E+00 0.00000E+00
 -1       123 1.50000E+02 2.95000E+00 0.00000E+00
 -1       124 1.50000E+02 5.90000E+00 0.00000E+00
 -1       125 1.50000E+02 8.85000E+00 0.00000E+00
 -1       126 1.50000E+02 1.18000E+01 0.00000E+00
 -1       127 1.50000E+02 1.47500E+01 0.00000E+00
 -1       128 1.50000E+02 1.76500E+01 0.00000E+00
 -1       129 1.50000E+02 2.06000E+01 0.00000E+00
 -1       130 1.50000E+02 2.35500E+01 0.00000E+00
 -1       131 1.50000E+02 2.65000E+01 0.00000E+00
 -1       132 1.50000E+02 2.94500E+01 0.00000E+00
 -1       133 1.50000E+02 3.24000E+01 0.00000E+00
 -1       134 1.50000E+02 3.53000E+01 0.00000E+00
 -1       135 1.50000E+02 3.82500E+01 0.00000E+00
 -1       136 1.50000E+02 4.12000E+01 0.00000E+00
 -1       137 1.50000E+02 4.41500E+01 0.00000E+00
 -1       138 1.50000E+02 4.71000E+01 0.00000E+00
 -1       139 8.49345E+01 1.02792E+01 0.00000E+00
 -1       140 8.44426E+01 8.82115E+00 0.00000E+00
 -1       141 8.37061E+01 7.58785E+00 0.00000E+00
 -1       142 8.26939E+01 6.49619E+00 0.00000E+00
 -1       143 8.14795E+01 5.64641E+00 0.00000E+00
 -1       144 8.01307E+01 5.07665E+00 0.00000E+00
 -1       145 7.86588E+01 4.79708E+00 0.00000E+00
 -1       146 7.72249E+01 4.82884E+00 0.00000E+00
 -1       147 7.57783E+01 5.16927E+00 0.00000E+00
 -1       148 7.44709E+01 5.78624E+00 0.00000E+00
 -1       149 7.32516E+01 6.72153E+00 0.00000E+00
 -1       150 7.23045E+01 7.84274E+00 0.00000E+00
 -1       151 7.15800E+01 9.21691E+00 0.00000E+00
 -1       152 7.11909E+01 1.06260E+01 0.00000E+00
 -1       153 7.11103E+01 1.22203E+01 0.00000E+00
 -1       154 7.13777E+01 1.37401E+01 0.00000E+00
 -1       155 7.19141E+01 1.50582E+01 0.00000E+00
 -1       156 7.27278E+01 1.62669E+01 0.00000E+00
 -1       157 7.37612E+01 1.72707E+01 0.00000E+00
 -1       158 7.51514E+01 1.81250E+01 0.00000E+00
 -1       159 7.66098E+01 1.86148E+01 0.00000E+00
 -1       160 7.81172E+01 1.87744E+01 0.00000E+00
 -1       161 7.95795E+01 1.86154E+01 0.00000E+00
 -1       162 8.10753E+01 1.81088E+01 0.00000E+00
 -1       163 8.35277E+01 1.61900E+01 0.00000E+00
 -1       164 8.43977E+01 1.48222E+01 0.00000E+00
 -1       165 8.49353E+01 1.32660E+01 0.00000E+00
 -1       166 2.59800E+00 4.55750E+01 0.00000E+00
 -1       167 2.59800E+00 4.26250E+01 0.00000E+00
 -1       168 2.59800E+00 3.96750E+01 0.00000E+00
 -1       169 2.59800E+00 3.67250E+01 0.00000E+00
 -1       170 2.59800E+00 3.38250E+01 0.00000E+00
 -1       171 2.59800E+00 3.08750E+01 0.00000E+00
 -1       172 2.59800E+00 2.79250E+01 0.00000E+00
 -1       173 2.59800E+00 2.49750E+01 0.00000E+00
 -1       174 2.59800E+00 2.20250E+01 0.00000E+00
 -1       175 2.59800E+00 1.90750E+01 0.00000E+00
 -1       176 2.59800E+00 1.61750E+01 0.00000E+00
 -1       177 2.59800E+00 1.32250E+01 0.00000E+00
 -1       178 2.59800E+00 1.02750E+01 0.00000E+00
 -1       179 2.59800E+00 7.32500E+00 0.00000E+00
 -1       180 2.59800E+00 4.37500E+00 0.00000E+00
 -1       181 4.65000E+00 4.74020E+01 0.00000E+00
 -1       182 7.65000E+00 4.74020E+01 0.00000E+00
 -1       183 1.06500E+01 4.74020E+01 0.00000E+00
 -1       184 1.36500E+01 4.74020E+01 0.00000E+00
 -1       185 1.66500E+01 4.74020E+01 0.00000E+00
 -1       186 1.96500E+01 4.74020E+01 0.00000E+00
 -1       187 2.26500E+01 4.74020E+01 0.00000E+00
 -1       188 2.56500E+01 4.74020E+01 0.00000E+00
 -1       189 2.86500E+01 4.74020E+01 0.00000E+00
 -1       190 3.16500E+01 4.74020E+01 0.00000E+00
 -1       191 3.46500E+01 4.74020E+01 0.00000E+00
 -1       192 3.76500E+01 4.74020E+01 0.00000E+00
 -1       193 4.06500E+01 4.74020E+01 0.00000E+00
 -1       194 4.36500E+01 4.74020E+01 0.00000E+00
 -1       195 4.66500E+01 4.74020E+01 0.00000E+00
 -1       196 4.96500E+01 4.74020E+01 0.00000E+00
 -1       197 5.26500E+01 4.74020E+01 0.00000E+00
 -1       198 5.56500E+01 4.74020E+01 0.00000E+00
 -1       199 5.86500E+01 4.74020E+01 0.00000E+00
 -1       200 6.16500E+01 4.74020E+01 0.00000E+00
 -1       201 6.46500E+01 4.74020E+01 0.00000E+00
 -1       202 6.76500E+01 4.74020E+01 0.00000E+00
 -1       203 7.06500E+01 4.74020E+01 0.00000E+00
 -1       204 7.36500E+01 4.74020E+01 0.00000E+00
 -1       205 7.66500E+01 4.74020E+01 0.00000E+00
 -1       206 7.96500E+01 4.74020E+01 0.00000E+00
 -1       207 8.26500E+01 4.74020E+01 0.00000E+00
 -1       208 8.56500E+01 4.74020E+01 0.00000E+00
 -1       209 8.86500E+01 4.74020E+01 0.00000E+00
 -1       210 9.16500E+01 4.74020E+01 0.00000E+00
 -1       211 9.46500E+01 4.74020E+01 0.00000E+00
 -1       212 9.76500E+01 4.74020E+01 0.00000E+00
 -1       213 1.00650E+02 4.74020E+01 0.00000E+00
 -1       214 1.03650E+02 4.74020E+01 0.00000E+00
 -1       215 1.06650E+02 4.74020E+01 0.00000E+00
 -1       216 1.09650E+02 4.74020E+01 0.00000E+00
 -1       217 1.12650E+02 4.74020E+01 0.00000E+00
 -1       218 1.15650E+02 4.74020E+01 0.00000E+00
 -1       219 1.18650E+02 4.74020E+01 0.00000E+00
 -1       220 1.21650E+02 4.74020E+01 0.00000E+00
 -1       221 1.24650E+02 4.74020E+01 0.00000E+00
 -1       222 1.27650E+02 4.74020E+01 0.00000E+00
 -1       223 1.30650E+02 4.74020E+01 0.00000E+00
 -1       224 1.33650E+02 4.74020E+01 0.00000E+00
 -1       225 1.36650E+02 4.74020E+01 0.00000E+00
 -1       226 1.39650E+02 4.74020E+01 0.00000E+00
 -1       227 1.42650E+02 4.74020E+01 0.00000E+00
 -1       228 1.45650E+02 4.74020E+01 0.00000E+00
 -1       229 4.50000E+00 2.59800E+00 0.00000E+00
 -1       230 7.50000E+00 2.59800E+00 0.00000E+00
 -1       231 1.05000E+01 2.59800E+00 0.00000E+00
 -1       232 1.35000E+01 2.59800E+00 0.00000E+00
 -1       233 1.65000E+01 2.59800E+00 0.00000E+00
 -1       234 1.95000E+01 2.59800E+00 0.00000E+00
 -1       235 2.25000E+01 2.59800E+00 0.00000E+00
 -1       236 2.55000E+01 2.59800E+00 0.00000E+00
 -1       237 2.85000E+01 2.59800E+00 0.00000E+00
 -1       238 3.15000E+01 2.59800E+00 0.00000E+00
 -1       239 3.45000E+01 2.59800E+00 0.00000E+00
 -1       240 3.75000E+01 2.59800E+00 0.00000E+00
 -1       241 4.05000E+01 2.59800E+00 0.00000E+00
 -1       242 4.35000E+01 2.59800E+00 0.00000E+00
 -1       243 4.65000E+01 2.59800E+00 0.00000E+00
 -1       244 4.95000E+01 2.59800E+00 0.00000E+00
 -1       245 5.25000E+01 2.59800E+00 0.00000E+00
 -1       246 5.55000E+01 2.59800E+00 0.00000E+00
 -1       247 5.85000E+01 2.59800E+00 0.00000E+00
 -1       248 6.15000E+01 2.59800E+00 0.00000E+00
 -1       249 6.45000E+01 2.59800E+00 0.00000E+00
 -1       250 6.75000E+01 2.59800E+00 0.00000E+00
 -1       251 7.03500E+01 2.59800E+00 0.00000E+00
 -1       252 7.26000E+01 2.59800E+00 0.00000E+00
 -1       253 7.74000E+01 1.63133E+00 0.00000E+00
 -1       254 7.93500E+01 1.63133E+00 0.00000E+00
 -1       255 8.13000E+01 1.63133E+00 0.00000E+00
 -1       256 8.40000E+01 1.63133E+00 0.00000E+00
 -1       257 8.65500E+01 1.63133E+00 0.00000E+00
 -1       258 8.91000E+01 1.63133E+00 0.00000E+00
 -1       259 9.21000E+01 1.63133E+00 0.00000E+00
 -1       260 9.51000E+01 1.63133E+00 0.00000E+00
 -1       261 9.81000E+01 1.63133E+00 0.00000E+00
 -1       262 1.01100E+02 1.63133E+00 0.00000E+00
 -1       263 1.04100E+02 1.63133E+00 0.00000E+00
 -1       264 1.07100E+02 1.63133E+00 0.00000E+00
 -1       265 1.10100E+02 1.63133E+00 0.00000E+00
 -1       266 1.13100E+02 1.63133E+00 0.00000E+00
 -1       267 1.16100E+02 1.63133E+00 0.00000E+00
 -1       268 1.19100E+02 1.63133E+00 0.00000E+00
 -1       269 1.22100E+02 1.63133E+00 0.00000E+00
 -1       270 1.25100E+02 1.63133E+00 0.00000E+00
 -1       271 1.28100E+02 1.63133E+00 0.00000E+00
 -1       272 1.31100E+02 1.63133E+00 0.00000E+00
 -1       273 1.34100E+02 1.63133E+00 0.00000E+00
 -1       274 1.37100E+02 1.63133E+00 0.00000E+00
 -1       275 1.40100E+02 1.63133E+00 0.00000E+00
 -1       276 1.43100E+02 1.63133E+00 0.00000E+00
 -1       277 1.46100E+02 1.63133E+00 0.00000E+00
 -1       278 1.48050E+02 2.29066E+00 0.00000E+00
 -1       279 1.48050E+02 5.24066E+00 0.00000E+00
 -1       280 1.48050E+02 8.19066E+00 0.00000E+00
 -1       281 1.48050E+02 1.11407E+01 0.00000E+00
 -1       282 1.48050E+02 1.40907E+01 0.00000E+00
 -1       283 1.48050E+02 1.69907E+01 0.00000E+00
 -1       284 1.48050E+02 1.99407E+01 0.00000E+00
 -1       285 1.48050E+02 2.28907E+01 0.00000E+00
 -1       286 1.48050E+02 2.58407E+01 0.00000E+00
 -1       287 1.48050E+02 2.87907E+01 0.00000E+00
 -1       288 1.48050E+02 3.17407E+01 0.00000E+00
 -1       289 1.48050E+02 3.46407E+01 0.00000E+00
 -1       290 1.48050E+02 3.75907E+01 0.00000E+00
 -1       291 1.48050E+02 4.05407E+01 0.00000E+00
 -1       292 1.48050E+02 4.34907E+01 0.00000E+00
 -1       293 8.63040E+01 1.08876E+01 0.00000E+00
 -1       294 8.59167E+01 9.13580E+00 0.00000E+00
 -1       295 8.51872E+01 7.53995E+00 0.00000E+00
 -1       296 8.41505E+01 6.16072E+00 0.00000E+00
 -1       297 8.27818E+01 5.07793E+00 0.00000E+00
 -1       298 8.13095E+01 4.16752E+00 0.00000E+00
 -1       299 7.96366E+01 3.66345E+00 0.00000E+00
 -1       300 7.79150E+01 3.60086E+00 0.00000E+00
 -1       301 7.62239E+01 3.81890E+00 0.00000E+00
 -1       302 7.45714E+01 4.30554E+00 0.00000E+00
 -1       303 7.31234E+01 5.29191E+00 0.00000E+00
 -1       304 7.17879E+01 6.44569E+00 0.00000E+00
 -1       305 7.06475E+01 7.84714E+00 0.00000E+00
 -1       306 7.01360E+01 9.57646E+00 0.00000E+00
 -1       307 6.96050E+01 1.13450E+01 0.00000E+00
 -1       308 6.98024E+01 1.32339E+01 0.00000E+00
 -1       309 7.05229E+01 1.48561E+01 0.00000E+00
 -1       310 7.12458E+01 1.63864E+01 0.00000E+00
 -1       311 7.23998E+01 1.76384E+01 0.00000E+00
 -1       312 7.37339E+01 1.88736E+01 0.00000E+00
 -1       313 7.54946E+01 1.95192E+01 0.00000E+00
 -1       314 7.72271E+01 1.99836E+01 0.00000E+00
 -1       315 7.89794E+01 1.99002E+01 0.00000E+00
 -1       316 8.08239E+01 1.98279E+01 0.00000E+00
 -1       317 8.25653E+01 1.90072E+01 0.00000E+00
 -1       318 8.38287E+01 1.75952E+01 0.00000E+00
 -1       319 8.51271E+01 1.62467E+01 0.00000E+00
 -1       320 8.59709E+01 1.44947E+01 0.00000E+00
 -1       321 8.62211E+01 1.26501E+01 0.00000E+00
 -1       322 7.48353E+01 2.15657E+00 0.00000E+00
 -1       323 1.47402E+02 4.56250E+01 0.00000E+00
 -1       324 5.19600E+00 4.11500E+01 0.00000E+00
 -1       325 5.19600E+00 4.41000E+01 0.00000E+00
 -1       326 5.19600E+00 3.52750E+01 0.00000E+00
 -1       327 5.19600E+00 3.23250E+01 0.00000E+00
 -1       328 5.19600E+00 2.93750E+01 0.00000E+00
 -1       329 5.19600E+00 2.64250E+01 0.00000E+00
 -1       330 5.19600E+00 2.34750E+01 0.00000E+00
 -1       331 5.19600E+00 2.05250E+01 0.00000E+00
 -1       332 5.19600E+00 1.76250E+01 0.00000E+00
 -1       333 5.19600E+00 1.46750E+01 0.00000E+00
 -1       334 5.19600E+00 1.17250E+01 0.00000E+00
 -1       335 5.19600E+00 8.77500E+00 0.00000E+00
 -1       336 5.19600E+00 5.82500E+00 0.00000E+00
 -1       337 8.67308E+01 7.79899E+00 0.00000E+00
 -1       338 9.15000E+00 4.48040E+01 0.00000E+00
 -1       339 1.21500E+01 4.48040E+01 0.00000E+00
 -1       340 1.51500E+01 4.48040E+01 0.00000E+00
 -1       341 1.81500E+01 4.48040E+01 0.00000E+00
 -1       342 2.11500E+01 4.48040E+01 0.00000E+00
 -1       343 2.41500E+01 4.48040E+01 0.00000E+00
 -1       344 2.71500E+01 4.48040E+01 0.00000E+00
 -1       345 3.01500E+01 4.48040E+01 0.00000E+00
 -1       346 3.31500E+01 4.48040E+01 0.00000E+00
 -1       347 3.61500E+01 4.48040E+01 0.00000E+00
 -1       348 3.91500E+01 4.48040E+01 0.00000E+00
 -1       349 4.21500E+01 4.48040E+01 0.00000E+00
 -1       350 4.51500E+01 4.48040E+01 0.00000E+00
 -1       351 4.81500E+01 4.48040E+01 0.00000E+00
 -1       352 5.11500E+01 4.48040E+01 0.00000E+00
 -1       353 5.41500E+01 4.48040E+01 0.00000E+00
 -1       354 5.71500E+01 4.48040E+01 0.00000E+00
 -1       355 6.01500E+01 4.48040E+01 0.00000E+00
 -1       356 6.31500E+01 4.48040E+01 0.00000E+00
 -1       357 6.61500E+01 4.48040E+01 0.00000E+00
 -1       358 6.91500E+01 4.48040E+01 0.00000E+00
 -1       359 7.21500E+01 4.48040E+01 0.00000E+00
 -1       360 7.51500E+01 4.48040E+01 0.00000E+00
 -1       361 7.81500E+01 4.48040E+01 0.00000E+00
 -1       362 8.11500E+01 4.48040E+01 0.00000E+00
 -1       363 8.41500E+01 4.48040E+01 0.00000E+00
 -1       364 8.71500E+01 4.48040E+01 0.00000E+00
 -1       365 9.01500E+01 4.48040E+01 0.00000E+00
 -1       366 9.31500E+01 4.48040E+01 0.00000E+00
 -1       367 9.61500E+01 4.48040E+01 0.00000E+00
 -1       368 9.91500E+01 4.48040E+01 0.00000E+00
 -1       369 1.02150E+02 4.48040E+01 0.00000E+00
 -1       370 1.05150E+02 4.48040E+01 0.00000E+00
 -1       371 1.08150E+02 4.48040E+01 0.00000E+00
 -1       372 1.11150E+02 4.48040E+01 0.00000E+00
 -1       373 1.14150E+02 4.48040E+01 0.00000E+00
 -1       374 1.17150E+02 4.48040E+01 0.00000E+00
 -1       375 1.20150E+02 4.48040E+01 0.00000E+00
 -1       376 1.23150E+02 4.48040E+01 0.00000E+00
 -1       377 1.26150E+02 4.48040E+01 0.00000E+00
 -1       378 1.29150E+02 4.48040E+01 0.00000E+00
 -1       379 1.32150E+02 4.48040E+01 0.00000E+00
 -1       380 1.35150E+02 4.48040E+01 0.00000E+00
 -1       381 1.38150E+02 4.48040E+01 0.00000E+00
 -1       382 1.41150E+02 4.48040E+01 0.00000E+00
 -1       383 1.44150E+02 4.48040E+01 0.00000E+00
 -1       384 1.20000E+01 5.19600E+00 0.00000E+00
 -1       385 9.00000E+00 5.19600E+00 0.00000E+00
 -1       386 1.50000E+01 5.19600E+00 0.00000E+00
 -1       387 1.80000E+01 5.19600E+00 0.00000E+00
 -1       388 2.10000E+01 5.19600E+00 0.00000E+00
 -1       389 2.40000E+01 5.19600E+00 0.00000E+00
 -1       390 2.70000E+01 5.19600E+00 0.00000E+00
 -1       391 3.00000E+01 5.19600E+00 0.00000E+00
 -1       392 3.30000E+01 5.19600E+00 0.00000E+00
 -1       393 3.60000E+01 5.19600E+00 0.00000E+00
 -1       394 3.90000E+01 5.19600E+00 0.00000E+00
 -1       395 4.20000E+01 5.19600E+00 0.00000E+00
 -1       396 4.50000E+01 5.19600E+00 0.00000E+00
 -1       397 4.80000E+01 5.19600E+00 0.00000E+00
 -1       398 5.10000E+01 5.19600E+00 0.00000E+00
 -1       399 5.40000E+01 5.19600E+00 0.00000E+00
 -1       400 5.70000E+01 5.19600E+00 0.00000E+00
 -1       401 6.00000E+01 5.19600E+00 0.00000E+00
 -1       402 6.30000E+01 5.19600E+00 0.00000E+00
 -1       403 6.60000E+01 5.19600E+00 0.00000E+00
 -1       404 6.88500E+01 5.19600E+00 0.00000E+00
 -1       405 8.52750E+01 3.68158E+00 0.00000E+00
 -1       406 8.78250E+01 3.68158E+00 0.00000E+00
 -1       407 9.06000E+01 3.84915E+00 0.00000E+00
 -1       408 9.36000E+01 3.84915E+00 0.00000E+00
 -1       409 9.66000E+01 3.84915E+00 0.00000E+00
 -1       410 9.96000E+01 3.84915E+00 0.00000E+00
 -1       411 1.02600E+02 3.84915E+00 0.00000E+00
 -1       412 1.05600E+02 3.84915E+00 0.00000E+00
 -1       413 1.08600E+02 3.84915E+00 0.00000E+00
 -1       414 1.11600E+02 3.84915E+00 0.00000E+00
 -1       415 1.14600E+02 3.84915E+00 0.00000E+00
 -1       416 1.17600E+02 3.84915E+00 0.00000E+00
 -1       417 1.20600E+02 3.84915E+00 0.00000E+00
 -1       418 1.23600E+02 3.84915E+00 0.00000E+00
 -1       419 1.26600E+02 3.84915E+00 0.00000E+00
 -1       420 1.29600E+02 3.84915E+00 0.00000E+00
 -1       421 1.32600E+02 3.84915E+00 0.00000E+00
 -1       422 1.35600E+02 3.84915E+00 0.00000E+00
 -1       423 1.38600E+02 3.84915E+00 0.00000E+00
 -1       424 1.41600E+02 3.84915E+00 0.00000E+00
 -1       425 1.44600E+02 3.84915E+00 0.00000E+00
 -1       426 1.46325E+02 4.54491E+00 0.00000E+00
 -1       427 1.45452E+02 9.66566E+00 0.00000E+00
 -1       428 1.45889E+02 7.10528E+00 0.00000E+00
 -1       429 1.45452E+02 1.26157E+01 0.00000E+00
 -1       430 1.45452E+02 1.55157E+01 0.00000E+00
 -1       431 1.45452E+02 1.84657E+01 0.00000E+00
 -1       432 1.45452E+02 2.14157E+01 0.00000E+00
 -1       433 1.45452E+02 2.43657E+01 0.00000E+00
 -1       434 1.45452E+02 2.73157E+01 0.00000E+00
 -1       435 1.45452E+02 3.02657E+01 0.00000E+00
 -1       436 1.45452E+02 3.31657E+01 0.00000E+00
 -1       437 1.45452E+02 3.61157E+01 0.00000E+00
 -1       438 1.45452E+02 3.90657E+01 0.00000E+00
 -1       439 1.45452E+02 4.20157E+01 0.00000E+00
 -1       440 8.58389E+01 5.97084E+00 0.00000E+00
 -1       441 8.78921E+01 1.18455E+01 0.00000E+00
 -1       442 5.19600E+00 3.82125E+01 0.00000E+00
 -1       443 8.43223E+01 4.53707E+00 0.00000E+00
 -1       444 8.29036E+01 3.23524E+00 0.00000E+00
 -1       445 7.02123E+01 6.32829E+00 0.00000E+00
 -1       446 6.91488E+01 8.34418E+00 0.00000E+00
 -1       447 6.86178E+01 1.01127E+01 0.00000E+00
 -1       448 6.80812E+01 1.24590E+01 0.00000E+00
 -1       449 6.89781E+01 1.45712E+01 0.00000E+00
 -1       450 6.96366E+01 1.62107E+01 0.00000E+00
 -1       451 7.08081E+01 1.79477E+01 0.00000E+00
 -1       452 7.21422E+01 1.91828E+01 0.00000E+00
 -1       453 7.41103E+01 2.05707E+01 0.00000E+00
 -1       454 7.60252E+01 2.10034E+01 0.00000E+00
 -1       455 7.81728E+01 2.14040E+01 0.00000E+00
 -1       456 8.00173E+01 2.13316E+01 0.00000E+00
 -1       457 8.23899E+01 2.08932E+01 0.00000E+00
 -1       458 8.42878E+01 1.92772E+01 0.00000E+00
 -1       459 8.55862E+01 1.79288E+01 0.00000E+00
 -1       460 8.67923E+01 1.59695E+01 0.00000E+00
 -1       461 8.76418E+01 1.36900E+01 0.00000E+00
 -1       462 8.77850E+01 9.64146E+00 0.00000E+00
 -1       463 7.10690E+01 4.52185E+00 0.00000E+00
 -1       464 7.25186E+01 2.08799E+01 0.00000E+00
 -1       465 6.87136E+01 6.82533E+00 0.00000E+00
 -1       466 7.79400E+00 3.08500E+01 0.00000E+00
 -1       467 7.79400E+00 3.38000E+01 0.00000E+00
 -1       468 7.79400E+00 2.49500E+01 0.00000E+00
 -1       469 7.79400E+00 2.20000E+01 0.00000E+00
 -1       470 7.79400E+00 1.91000E+01 0.00000E+00
 -1       471 7.79400E+00 1.61500E+01 0.00000E+00
 -1       472 7.79400E+00 1.32000E+01 0.00000E+00
 -1       473 7.79400E+00 1.02500E+01 0.00000E+00
 -1       474 8.39700E+00 7.72300E+00 0.00000E+00
 -1       475 1.06500E+01 4.22060E+01 0.00000E+00
 -1       476 8.86011E+01 7.95168E+00 0.00000E+00
 -1       477 1.36500E+01 4.22060E+01 0.00000E+00
 -1       478 1.66500E+01 4.22060E+01 0.00000E+00
 -1       479 1.96500E+01 4.22060E+01 0.00000E+00
 -1       480 2.26500E+01 4.22060E+01 0.00000E+00
 -1       481 2.56500E+01 4.22060E+01 0.00000E+00
 -1       482 2.86500E+01 4.22060E+01 0.00000E+00
 -1       483 3.16500E+01 4.22060E+01 0.00000E+00
 -1       484 3.46500E+01 4.22060E+01 0.00000E+00
 -1       485 3.76500E+01 4.22060E+01 0.00000E+00
 -1       486 4.06500E+01 4.22060E+01 0.00000E+00
 -1       487 4.36500E+01 4.22060E+01 0.00000E+00
 -1       488 4.66500E+01 4.22060E+01 0.00000E+00
 -1       489 4.96500E+01 4.22060E+01 0.00000E+00
 -1       490 5.26500E+01 4.22060E+01 0.00000E+00
 -1       491 5.56500E+01 4.22060E+01 0.00000E+00
 -1       492 5.86500E+01 4.22060E+01 0.00000E+00
 -1       493 6.16500E+01 4.22060E+01 0.00000E+00
 -1       494 6.46500E+01 4.22060E+01 0.00000E+00
 -1       495 6.76500E+01 4.22060E+01 0.00000E+00
 -1       496 7.06500E+01 4.22060E+01 0.00000E+00
 -1       497 7.36500E+01 4.22060E+01 0.00000E+00
 -1       498 7.66500E+01 4.22060E+01 0.00000E+00
 -1       499 7.96500E+01 4.22060E+01 0.00000E+00
 -1       500 8.26500E+01 4.22060E+01 0.00000E+00
 -1       501 8.56500E+01 4.22060E+01 0.00000E+00
 -1       502 8.86500E+01 4.22060E+01 0.00000E+00
 -1       503 9.16500E+01 4.22060E+01 0.00000E+00
 -1       504 9.46500E+01 4.22060E+01 0.00000E+00
 -1       505 9.76500E+01 4.22060E+01 0.00000E+00
 -1       506 1.00650E+02 4.22060E+01 0.00000E+00
 -1       507 1.03650E+02 4.22060E+01 0.00000E+00
 -1       508 1.06650E+02 4.22060E+01 0.00000E+00
 -1       509 1.09650E+02 4.22060E+01 0.00000E+00
 -1       510 1.12650E+02 4.22060E+01 0.00000E+00
 -1       511 1.15650E+02 4.22060E+01 0.00000E+00
 -1       512 1.18650E+02 4.22060E+01 0.00000E+00
 -1       513 1.21650E+02 4.22060E+01 0.00000E+00
 -1       514 1.24650E+02 4.22060E+01 0.00000E+00
 -1       515 1.27650E+02 4.22060E+01 0.00000E+00
 -1       516 1.30650E+02 4.22060E+01 0.00000E+00
 -1       517 1.33650E+02 4.22060E+01 0.00000E+00
 -1       518 1.36650E+02 4.22060E+01 0.00000E+00
 -1       519 1.39650E+02 4.22060E+01 0.00000E+00
 -1       520 1.42551E+02 4.21108E+01 0.00000E+00
 -1       521 1.65000E+01 7.79400E+00 0.00000E+00
 -1       522 1.95000E+01 7.79400E+00 0.00000E+00
 -1       523 2.25000E+01 7.79400E+00 0.00000E+00
 -1       524 2.55000E+01 7.79400E+00 0.00000E+00
 -1       525 2.85000E+01 7.79400E+00 0.00000E+00
 -1       526 3.15000E+01 7.79400E+00 0.00000E+00
 -1       527 3.45000E+01 7.79400E+00 0.00000E+00
 -1       528 3.75000E+01 7.79400E+00 0.00000E+00
 -1       529 4.05000E+01 7.79400E+00 0.00000E+00
 -1       530 4.35000E+01 7.79400E+00 0.00000E+00
 -1       531 4.65000E+01 7.79400E+00 0.00000E+00
 -1       532 4.95000E+01 7.79400E+00 0.00000E+00
 -1       533 5.25000E+01 7.79400E+00 0.00000E+00
 -1       534 5.55000E+01 7.79400E+00 0.00000E+00
 -1       535 5.85000E+01 7.79400E+00 0.00000E+00
 -1       536 6.15000E+01 7.79400E+00 0.00000E+00
 -1       537 6.45000E+01 7.79400E+00 0.00000E+00
 -1       538 7.92300E+00 4.16780E+01 0.00000E+00
 -1       539 9.51000E+01 6.23454E+00 0.00000E+00
 -1       540 9.21000E+01 6.23454E+00 0.00000E+00
 -1       541 1.01100E+02 6.44715E+00 0.00000E+00
 -1       542 1.04100E+02 6.44715E+00 0.00000E+00
 -1       543 1.07100E+02 6.44715E+00 0.00000E+00
 -1       544 1.10100E+02 6.44715E+00 0.00000E+00
 -1       545 1.13100E+02 6.44715E+00 0.00000E+00
 -1       546 1.16100E+02 6.44715E+00 0.00000E+00
 -1       547 1.19100E+02 6.44715E+00 0.00000E+00
 -1       548 1.22100E+02 6.44715E+00 0.00000E+00
 -1       549 1.25100E+02 6.44715E+00 0.00000E+00
 -1       550 1.28100E+02 6.44715E+00 0.00000E+00
 -1       551 1.31100E+02 6.44715E+00 0.00000E+00
 -1       552 1.34100E+02 6.44715E+00 0.00000E+00
 -1       553 1.37100E+02 6.44715E+00 0.00000E+00
 -1       554 1.40100E+02 6.44715E+00 0.00000E+00
 -1       555 1.44163E+02 6.40953E+00 0.00000E+00
 -1       556 1.42854E+02 1.40657E+01 0.00000E+00
 -1       557 1.42854E+02 1.70157E+01 0.00000E+00
 -1       558 1.42854E+02 1.11157E+01 0.00000E+00
 -1       559 1.42854E+02 1.99657E+01 0.00000E+00
 -1       560 1.42854E+02 2.29157E+01 0.00000E+00
 -1       561 1.42854E+02 2.58657E+01 0.00000E+00
 -1       562 1.42854E+02 2.88157E+01 0.00000E+00
 -1       563 1.42854E+02 3.17157E+01 0.00000E+00
 -1       564 1.42854E+02 3.46657E+01 0.00000E+00
 -1       565 1.42854E+02 3.76157E+01 0.00000E+00
 -1       566 1.42702E+02 3.98632E+01 0.00000E+00
 -1       567 8.74357E+01 1.77164E+01 0.00000E+00
 -1       568 8.77092E+01 6.12353E+00 0.00000E+00
 -1       569 6.77158E+01 1.60302E+01 0.00000E+00
 -1       570 8.93835E+01 1.29870E+01 0.00000E+00
 -1       571 8.15152E+01 2.27990E+01 0.00000E+00
 -1       572 7.67998E+01 2.28073E+01 0.00000E+00
 -1       573 9.81000E+01 6.44715E+00 0.00000E+00
 -1       574 6.86615E+01 1.81319E+01 0.00000E+00
 -1       575 1.13970E+01 7.72300E+00 0.00000E+00
 -1       576 7.79400E+00 2.79000E+01 0.00000E+00
 -1       577 1.39485E+01 7.75850E+00 0.00000E+00
 -1       578 6.65142E+01 1.08661E+01 0.00000E+00
 -1       579 6.68189E+01 1.39180E+01 0.00000E+00
 -1       580 6.75616E+01 8.83162E+00 0.00000E+00
 -1       581 7.48849E+01 2.23746E+01 0.00000E+00
 -1       582 7.04238E+01 1.97009E+01 0.00000E+00
 -1       583 8.45594E+01 2.15187E+01 0.00000E+00