    1C
    1UUSER                                                              
    1UDATE              27.october.2022                                 
    1UTIME              00:40:19                                        
    1UHOST                                                              
    1UPGM               CalculiX                                        
    1UVERSION           Version 2.17                             
    1UCOMPILETIME       Thu Jul 23 21:43:50 CEST 2020                    
    1UDIR                                                               
    1UDBN                                                               
    1UMAT    1SOLIDMATERIAL                                             
    2C                          4283                                     1
 -1         1 3.46841E+01 4.09090E+01 0.00000E+00
 -1         2 4.70393E+01 3.64010E+01 0.00000E+00
 -1         3 1.50000E+02 0.00000E+00 0.00000E+00
 -1         4 1.50000E+02 5.00000E+01 0.00000E+00
 -1         5 0.00000E+00 0.00000E+00 0.00000E+00
 -1         6 0.00000E+00 5.00000E+01 0.00000E+00
 -1         7 0.00000E+00 4.70500E+01 0.00000E+00
 -1         8 0.00000E+00 4.41000E+01 0.00000E+00
 -1         9 0.00000E+00 4.11500E+01 0.00000E+00
 -1        10 0.00000E+00 3.82000E+01 0.00000E+00
 -1        11 0.00000E+00 3.52500E+01 0.00000E+00
 -1        12 0.00000E+00 3.23500E+01 0.00000E+00
 -1        13 0.00000E+00 2.94000E+01 0.00000E+00
 -1        14 0.00000E+00 2.64500E+01 0.00000E+00
 -1        15 0.00000E+00 2.35000E+01 0.00000E+00
 -1        16 0.00000E+00 2.05500E+01 0.00000E+00
 -1        17 0.00000E+00 1.76000E+01 0.00000E+00
 -1        18 0.00000E+00 1.47000E+01 0.00000E+00
 -1        19 0.00000E+00 1.17500E+01 0.00000E+00
 -1        20 0.00000E+00 8.80000E+00 0.00000E+00
 -1        21 0.00000E+00 5.85000E+00 0.00000E+00
 -1        22 0.00000E+00 2.90000E+00 0.00000E+00
 -1        23 3.00000E+00 5.00000E+01 0.00000E+00
 -1        24 6.00000E+00 5.00000E+01 0.00000E+00
 -1        25 9.00000E+00 5.00000E+01 0.00000E+00
 -1        26 1.20000E+01 5.00000E+01 0.00000E+00
 -1        27 1.50000E+01 5.00000E+01 0.00000E+00
 -1        28 1.80000E+01 5.00000E+01 0.00000E+00
 -1        29 2.10000E+01 5.00000E+01 0.00000E+00
 -1        30 2.40000E+01 5.00000E+01 0.00000E+00
 -1        31 2.70000E+01 5.00000E+01 0.00000E+00
 -1        32 3.00000E+01 5.00000E+01 0.00000E+00
 -1        33 3.30000E+01 5.00000E+01 0.00000E+00
 -1        34 3.57000E+01 5.00000E+01 0.00000E+00
 -1        35 3.81000E+01 5.00000E+01 0.00000E+00
 -1        36 4.06500E+01 5.00000E+01 0.00000E+00
 -1        37 4.30500E+01 5.00000E+01 0.00000E+00
 -1        38 4.56000E+01 5.00000E+01 0.00000E+00
 -1        39 4.83000E+01 5.00000E+01 0.00000E+00
 -1        40 5.13000E+01 5.00000E+01 0.00000E+00
 -1        41 5.43000E+01 5.00000E+01 0.00000E+00
 -1        42 5.73000E+01 5.00000E+01 0.00000E+00
 -1        43 6.03000E+01 5.00000E+01 0.00000E+00
 -1        44 6.33000E+01 5.00000E+01 0.00000E+00
 -1        45 6.63000E+01 5.00000E+01 0.00000E+00
 -1        46 6.93000E+01 5.00000E+01 0.00000E+00
 -1        47 7.23000E+01 5.00000E+01 0.00000E+00
 -1        48 7.53000E+01 5.00000E+01 0.00000E+00
 -1        49 7.83000E+01 5.00000E+01 0.00000E+00
 -1        50 8.13000E+01 5.00000E+01 0.00000E+00
 -1        51 8.43000E+01 5.00000E+01 0.00000E+00
 -1        52 8.73000E+01 5.00000E+01 0.00000E+00
 -1        53 9.01500E+01 5.00000E+01 0.00000E+00
 -1        54 9.31500E+01 5.00000E+01 0.00000E+00
 -1        55 9.61500E+01 5.00000E+01 0.00000E+00
 -1        56 9.91500E+01 5.00000E+01 0.00000E+00
 -1        57 1.02150E+02 5.00000E+01 0.00000E+00
 -1        58 1.05150E+02 5.00000E+01 0.00000E+00
 -1        59 1.08150E+02 5.00000E+01 0.00000E+00
 -1        60 1.11150E+02 5.00000E+01 0.00000E+00
 -1        61 1.14150E+02 5.00000E+01 0.00000E+00
 -1        62 1.17150E+02 5.00000E+01 0.00000E+00
 -1        63 1.20150E+02 5.00000E+01 0.00000E+00
 -1        64 1.23150E+02 5.00000E+01 0.00000E+00
 -1        65 1.26150E+02 5.00000E+01 0.00000E+00
 -1        66 1.29150E+02 5.00000E+01 0.00000E+00
 -1        67 1.32150E+02 5.00000E+01 0.00000E+00
 -1        68 1.35150E+02 5.00000E+01 0.00000E+00
 -1        69 1.38150E+02 5.00000E+01 0.00000E+00
 -1        70 1.41150E+02 5.00000E+01 0.00000E+00
 -1        71 1.44150E+02 5.00000E+01 0.00000E+00
 -1        72 1.47150E+02 5.00000E+01 0.00000E+00
 -1        73 3.15000E+00 0.00000E+00 0.00000E+00
 -1        74 6.15000E+00 0.00000E+00 0.00000E+00
 -1        75 9.15000E+00 0.00000E+00 0.00000E+00
 -1        76 1.21500E+01 0.00000E+00 0.00000E+00
 -1        77 1.51500E+01 0.00000E+00 0.00000E+00
 -1        78 1.81500E+01 0.00000E+00 0.00000E+00
 -1        79 2.11500E+01 0.00000E+00 0.00000E+00
 -1        80 2.41500E+01 0.00000E+00 0.00000E+00
 -1        81 2.71500E+01 0.00000E+00 0.00000E+00
 -1        82 3.01500E+01 0.00000E+00 0.00000E+00
 -1        83 3.31500E+01 0.00000E+00 0.00000E+00
 -1        84 3.61500E+01 0.00000E+00 0.00000E+00
 -1        85 3.91500E+01 0.00000E+00 0.00000E+00
 -1        86 4.21500E+01 0.00000E+00 0.00000E+00
 -1        87 4.51500E+01 0.00000E+00 0.00000E+00
 -1        88 4.81500E+01 0.00000E+00 0.00000E+00
 -1        89 5.11500E+01 0.00000E+00 0.00000E+00
 -1        90 5.41500E+01 0.00000E+00 0.00000E+00
 -1        91 5.71500E+01 0.00000E+00 0.00000E+00
 -1        92 6.01500E+01 0.00000E+00 0.00000E+00
 -1        93 6.31500E+01 0.00000E+00 0.00000E+00
 -1        94 6.61500E+01 0.00000E+00 0.00000E+00
 -1        95 6.91500E+01 0.00000E+00 0.00000E+00
 -1        96 7.21500E+01 0.00000E+00 0.00000E+00
 -1        97 7.51500E+01 0.00000E+00 0.00000E+00
 -1        98 7.81500E+01 0.00000E+00 0.00000E+00
 -1        99 8.11500E+01 0.00000E+00 0.00000E+00
 -1       100 8.41500E+01 0.00000E+00 0.00000E+00
 -1       101 8.71500E+01 0.00000E+00 0.00000E+00
 -1       102 9.01500E+01 0.00000E+00 0.00000E+00
 -1       103 9.31500E+01 0.00000E+00 0.00000E+00
 -1       104 9.61500E+01 0.00000E+00 0.00000E+00
 -1       105 9.91500E+01 0.00000E+00 0.00000E+00
 -1       106 1.02150E+02 0.00000E+00 0.00000E+00
 -1       107 1.05150E+02 0.00000E+00 0.00000E+00
 -1       108 1.08150E+02 0.00000E+00 0.00000E+00
 -1       109 1.11150E+02 0.00000E+00 0.00000E+00
 -1       110 1.14150E+02 0.00000E+00 0.00000E+00
 -1       111 1.17150E+02 0.00000E+00 0.00000E+00
 -1       112 1.20150E+02 0.00000E+00 0.00000E+00
 -1       113 1.23150E+02 0.00000E+00 0.00000E+00
 -1       114 1.26150E+02 0.00000E+00 0.00000E+00
 -1       115 1.29150E+02 0.00000E+00 0.00000E+00
 -1       116 1.32150E+02 0.00000E+00 0.00000E+00
 -1       117 1.35150E+02 0.00000E+00 0.00000E+00
 -1       118 1.38150E+02 0.00000E+00 0.00000E+00
 -1       119 1.41150E+02 0.00000E+00 0.00000E+00
 -1       120 1.44150E+02 0.00000E+00 0.00000E+00
 -1       121 1.47150E+02 0.00000E+00 0.00000E+00
 -1       122 1.50000E+02 2.95000E+00 0.00000E+00
 -1       123 1.50000E+02 5.90000E+00 0.00000E+00
 -1       124 1.50000E+02 8.85000E+00 0.00000E+00
 -1       125 1.50000E+02 1.18000E+01 0.00000E+00
 -1       126 1.50000E+02 1.47500E+01 0.00000E+00
 -1       127 1.50000E+02 1.76500E+01 0.00000E+00
 -1       128 1.50000E+02 2.06000E+01 0.00000E+00
 -1       129 1.50000E+02 2.35500E+01 0.00000E+00
 -1       130 1.50000E+02 2.65000E+01 0.00000E+00
 -1       131 1.50000E+02 2.94500E+01 0.00000E+00
 -1       132 1.50000E+02 3.24000E+01 0.00000E+00
 -1       133 1.50000E+02 3.53000E+01 0.00000E+00
 -1       134 1.50000E+02 3.82500E+01 0.00000E+00
 -1       135 1.50000E+02 4.12000E+01 0.00000E+00
 -1       136 1.50000E+02 4.41500E+01 0.00000E+00
 -1       137 1.50000E+02 4.71000E+01 0.00000E+00
 -1       138 4.68801E+01 3.49165E+01 0.00000E+00
 -1       139 4.64159E+01 3.35133E+01 0.00000E+00
 -1       140 4.56278E+01 3.21858E+01 0.00000E+00
 -1       141 4.46368E+01 3.11225E+01 0.00000E+00
 -1       142 4.34304E+01 3.02772E+01 0.00000E+00
 -1       143 4.20297E+01 2.96899E+01 0.00000E+00
 -1       144 4.06171E+01 2.94249E+01 0.00000E+00
 -1       145 3.90916E+01 2.94654E+01 0.00000E+00
 -1       146 3.76794E+01 2.98108E+01 0.00000E+00
 -1       147 3.63096E+01 3.04774E+01 0.00000E+00
 -1       148 3.51526E+01 3.13890E+01 0.00000E+00
 -1       149 3.42080E+01 3.25286E+01 0.00000E+00
 -1       150 3.35444E+01 3.37901E+01 0.00000E+00
 -1       151 3.31346E+01 3.52500E+01 0.00000E+00
 -1       152 3.30498E+01 3.67847E+01 0.00000E+00
 -1       153 3.32916E+01 3.82634E+01 0.00000E+00
 -1       154 3.38280E+01 3.96289E+01 0.00000E+00
 -1       155 3.56735E+01 4.18727E+01 0.00000E+00
 -1       156 3.69223E+01 4.26687E+01 0.00000E+00
 -1       157 3.82093E+01 4.31576E+01 0.00000E+00
 -1       158 3.96901E+01 4.33923E+01 0.00000E+00
 -1       159 4.10457E+01 4.33283E+01 0.00000E+00
 -1       160 4.24033E+01 4.29897E+01 0.00000E+00
 -1       161 4.37703E+01 4.23238E+01 0.00000E+00
 -1       162 4.48504E+01 4.14856E+01 0.00000E+00
 -1       163 4.57527E+01 4.04453E+01 0.00000E+00
 -1       164 4.64648E+01 3.91783E+01 0.00000E+00
 -1       165 4.68883E+01 3.78471E+01 0.00000E+00
 -1       166 2.59800E+00 4.55750E+01 0.00000E+00
 -1       167 2.59800E+00 4.26250E+01 0.00000E+00
 -1       168 2.59800E+00 3.96750E+01 0.00000E+00
 -1       169 2.59800E+00 3.67250E+01 0.00000E+00
 -1       170 2.59800E+00 3.38250E+01 0.00000E+00
 -1       171 2.59800E+00 3.08750E+01 0.00000E+00
 -1       172 2.59800E+00 2.79250E+01 0.00000E+00
 -1       173 2.59800E+00 2.49750E+01 0.00000E+00
 -1       174 2.59800E+00 2.20250E+01 0.00000E+00
 -1       175 2.59800E+00 1.90750E+01 0.00000E+00
 -1       176 2.59800E+00 1.61750E+01 0.00000E+00
 -1       177 2.59800E+00 1.32250E+01 0.00000E+00
 -1       178 2.59800E+00 1.02750E+01 0.00000E+00
 -1       179 2.59800E+00 7.32500E+00 0.00000E+00
 -1       180 2.59800E+00 4.37500E+00 0.00000E+00
 -1       181 2.87400E+00 2.18750E+00 0.00000E+00
 -1       182 4.50000E+00 4.74020E+01 0.00000E+00
 -1       183 7.50000E+00 4.74020E+01 0.00000E+00
 -1       184 1.05000E+01 4.74020E+01 0.00000E+00
 -1       185 1.35000E+01 4.74020E+01 0.00000E+00
 -1       186 1.65000E+01 4.74020E+01 0.00000E+00
 -1       187 1.95000E+01 4.74020E+01 0.00000E+00
 -1       188 2.25000E+01 4.74020E+01 0.00000E+00
 -1       189 2.55000E+01 4.74020E+01 0.00000E+00
 -1       190 2.85000E+01 4.74020E+01 0.00000E+00
 -1       191 3.15000E+01 4.74020E+01 0.00000E+00
 -1       192 3.42000E+01 4.74020E+01 0.00000E+00
 -1       193 3.93750E+01 4.77822E+01 0.00000E+00
 -1       194 4.17750E+01 4.77822E+01 0.00000E+00
 -1       195 4.43250E+01 4.77822E+01 0.00000E+00
 -1       196 4.70250E+01 4.77822E+01 0.00000E+00
 -1       197 5.00250E+01 4.77822E+01 0.00000E+00
 -1       198 5.30250E+01 4.77822E+01 0.00000E+00
 -1       199 5.60250E+01 4.77822E+01 0.00000E+00
 -1       200 5.90250E+01 4.77822E+01 0.00000E+00
 -1       201 6.20250E+01 4.77822E+01 0.00000E+00
 -1       202 6.50250E+01 4.77822E+01 0.00000E+00
 -1       203 6.80250E+01 4.77822E+01 0.00000E+00
 -1       204 7.10250E+01 4.77822E+01 0.00000E+00
 -1       205 7.40250E+01 4.77822E+01 0.00000E+00
 -1       206 7.70250E+01 4.77822E+01 0.00000E+00
 -1       207 8.00250E+01 4.77822E+01 0.00000E+00
 -1       208 8.30250E+01 4.77822E+01 0.00000E+00
 -1       209 8.60250E+01 4.77822E+01 0.00000E+00
 -1       210 8.88750E+01 4.77822E+01 0.00000E+00
 -1       211 9.18750E+01 4.77822E+01 0.00000E+00
 -1       212 9.48750E+01 4.77822E+01 0.00000E+00
 -1       213 9.78750E+01 4.77822E+01 0.00000E+00
 -1       214 1.00875E+02 4.77822E+01 0.00000E+00
 -1       215 1.03875E+02 4.77822E+01 0.00000E+00
 -1       216 1.06875E+02 4.77822E+01 0.00000E+00
 -1       217 1.09875E+02 4.77822E+01 0.00000E+00
 -1       218 1.12875E+02 4.77822E+01 0.00000E+00
 -1       219 1.15875E+02 4.77822E+01 0.00000E+00
 -1       220 1.18875E+02 4.77822E+01 0.00000E+00
 -1       221 1.21875E+02 4.77822E+01 0.00000E+00
 -1       222 1.24875E+02 4.77822E+01 0.00000E+00
 -1       223 1.27875E+02 4.77822E+01 0.00000E+00
 -1       224 1.30875E+02 4.77822E+01 0.00000E+00
 -1       225 1.33875E+02 4.77822E+01 0.00000E+00
 -1       226 1.36875E+02 4.77822E+01 0.00000E+00
 -1       227 1.39875E+02 4.77822E+01 0.00000E+00
 -1       228 1.42875E+02 4.77822E+01 0.00000E+00
 -1       229 1.45875E+02 4.77822E+01 0.00000E+00
 -1       230 1.47938E+02 4.74411E+01 0.00000E+00
 -1       231 5.87400E+00 2.18750E+00 0.00000E+00
 -1       232 8.87400E+00 2.18750E+00 0.00000E+00
 -1       233 1.18740E+01 2.18750E+00 0.00000E+00
 -1       234 1.48740E+01 2.18750E+00 0.00000E+00
 -1       235 1.78740E+01 2.18750E+00 0.00000E+00
 -1       236 2.08740E+01 2.18750E+00 0.00000E+00
 -1       237 2.38740E+01 2.18750E+00 0.00000E+00
 -1       238 2.68740E+01 2.18750E+00 0.00000E+00
 -1       239 2.98740E+01 2.18750E+00 0.00000E+00
 -1       240 3.28740E+01 2.18750E+00 0.00000E+00
 -1       241 3.58740E+01 2.18750E+00 0.00000E+00
 -1       242 3.88740E+01 2.18750E+00 0.00000E+00
 -1       243 4.18740E+01 2.18750E+00 0.00000E+00
 -1       244 4.48740E+01 2.18750E+00 0.00000E+00
 -1       245 4.78740E+01 2.18750E+00 0.00000E+00
 -1       246 5.08740E+01 2.18750E+00 0.00000E+00
 -1       247 5.38740E+01 2.18750E+00 0.00000E+00
 -1       248 5.68740E+01 2.18750E+00 0.00000E+00
 -1       249 5.98740E+01 2.18750E+00 0.00000E+00
 -1       250 6.28740E+01 2.18750E+00 0.00000E+00
 -1       251 6.58740E+01 2.18750E+00 0.00000E+00
 -1       252 6.88740E+01 2.18750E+00 0.00000E+00
 -1       253 7.18740E+01 2.18750E+00 0.00000E+00
 -1       254 7.48740E+01 2.18750E+00 0.00000E+00
 -1       255 7.78740E+01 2.18750E+00 0.00000E+00
 -1       256 8.08740E+01 2.18750E+00 0.00000E+00
 -1       257 8.38740E+01 2.18750E+00 0.00000E+00
 -1       258 8.68740E+01 2.18750E+00 0.00000E+00
 -1       259 8.98740E+01 2.18750E+00 0.00000E+00
 -1       260 9.28740E+01 2.18750E+00 0.00000E+00
 -1       261 9.58740E+01 2.18750E+00 0.00000E+00
 -1       262 9.88740E+01 2.18750E+00 0.00000E+00
 -1       263 1.01874E+02 2.18750E+00 0.00000E+00
 -1       264 1.04874E+02 2.18750E+00 0.00000E+00
 -1       265 1.07874E+02 2.18750E+00 0.00000E+00
 -1       266 1.10874E+02 2.18750E+00 0.00000E+00
 -1       267 1.13874E+02 2.18750E+00 0.00000E+00
 -1       268 1.16874E+02 2.18750E+00 0.00000E+00
 -1       269 1.19874E+02 2.18750E+00 0.00000E+00
 -1       270 1.22874E+02 2.18750E+00 0.00000E+00
 -1       271 1.25874E+02 2.18750E+00 0.00000E+00
 -1       272 1.28874E+02 2.18750E+00 0.00000E+00
 -1       273 1.31874E+02 2.18750E+00 0.00000E+00
 -1       274 1.34874E+02 2.18750E+00 0.00000E+00
 -1       275 1.37874E+02 2.18750E+00 0.00000E+00
 -1       276 1.40874E+02 2.18750E+00 0.00000E+00
 -1       277 1.43874E+02 2.18750E+00 0.00000E+00
 -1       278 1.46874E+02 2.18750E+00 0.00000E+00
 -1       279 1.47402E+02 4.42500E+00 0.00000E+00
 -1       280 1.47402E+02 7.37500E+00 0.00000E+00
 -1       281 1.47402E+02 1.03250E+01 0.00000E+00
 -1       282 1.47402E+02 1.32750E+01 0.00000E+00
 -1       283 1.47402E+02 1.61750E+01 0.00000E+00
 -1       284 1.47402E+02 1.91250E+01 0.00000E+00
 -1       285 1.47402E+02 2.20750E+01 0.00000E+00
 -1       286 1.47402E+02 2.50250E+01 0.00000E+00
 -1       287 1.47402E+02 2.79750E+01 0.00000E+00
 -1       288 1.47402E+02 3.09250E+01 0.00000E+00
 -1       289 1.47402E+02 3.38250E+01 0.00000E+00
 -1       290 1.47402E+02 3.67750E+01 0.00000E+00
 -1       291 1.47402E+02 3.97250E+01 0.00000E+00
 -1       292 1.47402E+02 4.26750E+01 0.00000E+00
 -1       293 1.47670E+02 4.50580E+01 0.00000E+00
 -1       294 4.81652E+01 3.55294E+01 0.00000E+00
 -1       295 4.78786E+01 3.38078E+01 0.00000E+00
 -1       296 4.72805E+01 3.21024E+01 0.00000E+00
 -1       297 4.60192E+01 3.08275E+01 0.00000E+00
 -1       298 4.47293E+01 2.97069E+01 0.00000E+00
 -1       299 4.32312E+01 2.87882E+01 0.00000E+00
 -1       300 4.15470E+01 2.83658E+01 0.00000E+00
 -1       301 3.98199E+01 2.81494E+01 0.00000E+00
 -1       302 3.80975E+01 2.84604E+01 0.00000E+00
 -1       303 3.63907E+01 2.89032E+01 0.00000E+00
 -1       304 3.49808E+01 2.99808E+01 0.00000E+00
 -1       305 3.36824E+01 3.11316E+01 0.00000E+00
 -1       306 3.28032E+01 3.25950E+01 0.00000E+00
 -1       307 3.20915E+01 3.41697E+01 0.00000E+00
 -1       308 3.16307E+01 3.59366E+01 0.00000E+00
 -1       309 3.19742E+01 3.77197E+01 0.00000E+00
 -1       310 3.24313E+01 3.93895E+01 0.00000E+00
 -1       311 3.31090E+01 4.10361E+01 0.00000E+00
 -1       312 3.43328E+01 4.22593E+01 0.00000E+00
 -1       313 3.55562E+01 4.34344E+01 0.00000E+00
 -1       314 3.71353E+01 4.40465E+01 0.00000E+00
 -1       315 3.87336E+01 4.46379E+01 0.00000E+00
 -1       316 4.04250E+01 4.45713E+01 0.00000E+00
 -1       317 4.20178E+01 4.43354E+01 0.00000E+00
 -1       318 4.36912E+01 4.38974E+01 0.00000E+00
 -1       319 4.50536E+01 4.28625E+01 0.00000E+00
 -1       320 4.62174E+01 4.17599E+01 0.00000E+00
 -1       321 4.73118E+01 4.04879E+01 0.00000E+00
 -1       322 4.78319E+01 3.88803E+01 0.00000E+00
 -1       323 4.82530E+01 3.72587E+01 0.00000E+00
 -1       324 3.69750E+01 4.77822E+01 0.00000E+00
 -1       325 5.19600E+00 4.11500E+01 0.00000E+00
 -1       326 5.19600E+00 4.41000E+01 0.00000E+00
 -1       327 5.19600E+00 3.52750E+01 0.00000E+00
 -1       328 5.19600E+00 3.23250E+01 0.00000E+00
 -1       329 5.19600E+00 2.93750E+01 0.00000E+00
 -1       330 5.19600E+00 2.64250E+01 0.00000E+00
 -1       331 5.19600E+00 2.34750E+01 0.00000E+00
 -1       332 5.19600E+00 2.05250E+01 0.00000E+00
 -1       333 5.19600E+00 1.76250E+01 0.00000E+00
 -1       334 5.19600E+00 1.46750E+01 0.00000E+00
 -1       335 5.19600E+00 1.17250E+01 0.00000E+00
 -1       336 5.19600E+00 8.77500E+00 0.00000E+00
 -1       337 5.19600E+00 5.82500E+00 0.00000E+00
 -1       338 5.53500E+00 4.00625E+00 0.00000E+00
 -1       339 8.53500E+00 4.00625E+00 0.00000E+00
 -1       340 9.00000E+00 4.48040E+01 0.00000E+00
 -1       341 1.20000E+01 4.48040E+01 0.00000E+00
 -1       342 1.50000E+01 4.48040E+01 0.00000E+00
 -1       343 1.80000E+01 4.48040E+01 0.00000E+00
 -1       344 2.10000E+01 4.48040E+01 0.00000E+00
 -1       345 2.40000E+01 4.48040E+01 0.00000E+00
 -1       346 2.70000E+01 4.48040E+01 0.00000E+00
 -1       347 3.00000E+01 4.48040E+01 0.00000E+00
 -1       348 3.27000E+01 4.48040E+01 0.00000E+00
 -1       349 4.98383E+01 3.63113E+01 0.00000E+00
 -1       350 4.30500E+01 4.58995E+01 0.00000E+00
 -1       351 4.57500E+01 4.58995E+01 0.00000E+00
 -1       352 4.85250E+01 4.53968E+01 0.00000E+00
 -1       353 5.15250E+01 4.53968E+01 0.00000E+00
 -1       354 5.45250E+01 4.53968E+01 0.00000E+00
 -1       355 5.75250E+01 4.53968E+01 0.00000E+00
 -1       356 6.05250E+01 4.53968E+01 0.00000E+00
 -1       357 6.35250E+01 4.53968E+01 0.00000E+00
 -1       358 6.65250E+01 4.53968E+01 0.00000E+00
 -1       359 6.95250E+01 4.53968E+01 0.00000E+00
 -1       360 7.25250E+01 4.53968E+01 0.00000E+00
 -1       361 7.55250E+01 4.53968E+01 0.00000E+00
 -1       362 7.85250E+01 4.53968E+01 0.00000E+00
 -1       363 8.15250E+01 4.53968E+01 0.00000E+00
 -1       364 8.45250E+01 4.53968E+01 0.00000E+00
 -1       365 8.73750E+01 4.53968E+01 0.00000E+00
 -1       366 9.03750E+01 4.53968E+01 0.00000E+00
 -1       367 9.33750E+01 4.53968E+01 0.00000E+00
 -1       368 9.63750E+01 4.53968E+01 0.00000E+00
 -1       369 9.93750E+01 4.53968E+01 0.00000E+00
 -1       370 1.02375E+02 4.53968E+01 0.00000E+00
 -1       371 1.05375E+02 4.53968E+01 0.00000E+00
 -1       372 1.08375E+02 4.53968E+01 0.00000E+00
 -1       373 1.11375E+02 4.53968E+01 0.00000E+00
 -1       374 1.14375E+02 4.53968E+01 0.00000E+00
 -1       375 1.17375E+02 4.53968E+01 0.00000E+00
 -1       376 1.20375E+02 4.53968E+01 0.00000E+00
 -1       377 1.23375E+02 4.53968E+01 0.00000E+00
 -1       378 1.26375E+02 4.53968E+01 0.00000E+00
 -1       379 1.29375E+02 4.53968E+01 0.00000E+00
 -1       380 1.32375E+02 4.53968E+01 0.00000E+00
 -1       381 1.35375E+02 4.53968E+01 0.00000E+00
 -1       382 1.38375E+02 4.53968E+01 0.00000E+00
 -1       383 1.41375E+02 4.53968E+01 0.00000E+00
 -1       384 1.44375E+02 4.53968E+01 0.00000E+00
 -1       385 1.33740E+01 4.78550E+00 0.00000E+00
 -1       386 1.63740E+01 4.78550E+00 0.00000E+00
 -1       387 1.93740E+01 4.78550E+00 0.00000E+00
 -1       388 2.23740E+01 4.78550E+00 0.00000E+00
 -1       389 2.53740E+01 4.78550E+00 0.00000E+00
 -1       390 2.83740E+01 4.78550E+00 0.00000E+00
 -1       391 3.13740E+01 4.78550E+00 0.00000E+00
 -1       392 3.43740E+01 4.78550E+00 0.00000E+00
 -1       393 3.73740E+01 4.78550E+00 0.00000E+00
 -1       394 4.03740E+01 4.78550E+00 0.00000E+00
 -1       395 4.33740E+01 4.78550E+00 0.00000E+00
 -1       396 4.63740E+01 4.78550E+00 0.00000E+00
 -1       397 4.93740E+01 4.78550E+00 0.00000E+00
 -1       398 5.23740E+01 4.78550E+00 0.00000E+00
 -1       399 5.53740E+01 4.78550E+00 0.00000E+00
 -1       400 5.83740E+01 4.78550E+00 0.00000E+00
 -1       401 6.13740E+01 4.78550E+00 0.00000E+00
 -1       402 6.43740E+01 4.78550E+00 0.00000E+00
 -1       403 6.73740E+01 4.78550E+00 0.00000E+00
 -1       404 7.03740E+01 4.78550E+00 0.00000E+00
 -1       405 7.33740E+01 4.78550E+00 0.00000E+00
 -1       406 7.63740E+01 4.78550E+00 0.00000E+00
 -1       407 7.93740E+01 4.78550E+00 0.00000E+00
 -1       408 8.23740E+01 4.78550E+00 0.00000E+00
 -1       409 8.53740E+01 4.78550E+00 0.00000E+00
 -1       410 8.83740E+01 4.78550E+00 0.00000E+00
 -1       411 9.13740E+01 4.78550E+00 0.00000E+00
 -1       412 9.43740E+01 4.78550E+00 0.00000E+00
 -1       413 9.73740E+01 4.78550E+00 0.00000E+00
 -1       414 1.00374E+02 4.78550E+00 0.00000E+00
 -1       415 1.03374E+02 4.78550E+00 0.00000E+00
 -1       416 1.06374E+02 4.78550E+00 0.00000E+00
 -1       417 1.09374E+02 4.78550E+00 0.00000E+00
 -1       418 1.12374E+02 4.78550E+00 0.00000E+00
 -1       419 1.15374E+02 4.78550E+00 0.00000E+00
 -1       420 1.18374E+02 4.78550E+00 0.00000E+00
 -1       421 1.21374E+02 4.78550E+00 0.00000E+00
 -1       422 1.24374E+02 4.78550E+00 0.00000E+00
 -1       423 1.27374E+02 4.78550E+00 0.00000E+00
 -1       424 1.30374E+02 4.78550E+00 0.00000E+00
 -1       425 1.33374E+02 4.78550E+00 0.00000E+00
 -1       426 1.36374E+02 4.78550E+00 0.00000E+00
 -1       427 1.39374E+02 4.78550E+00 0.00000E+00
 -1       428 1.42374E+02 4.78550E+00 0.00000E+00
 -1       429 1.44888E+02 4.60525E+00 0.00000E+00
 -1       430 1.44804E+02 1.18000E+01 0.00000E+00
 -1       431 1.44804E+02 8.85000E+00 0.00000E+00
 -1       432 1.44804E+02 1.47000E+01 0.00000E+00
 -1       433 1.44804E+02 1.76500E+01 0.00000E+00
 -1       434 1.44804E+02 2.06000E+01 0.00000E+00
 -1       435 1.44804E+02 2.35500E+01 0.00000E+00
 -1       436 1.44804E+02 2.65000E+01 0.00000E+00
 -1       437 1.44804E+02 2.94500E+01 0.00000E+00
 -1       438 1.44804E+02 3.23500E+01 0.00000E+00
 -1       439 1.44804E+02 3.53000E+01 0.00000E+00
 -1       440 1.44804E+02 3.82500E+01 0.00000E+00
 -1       441 1.44804E+02 4.12000E+01 0.00000E+00
 -1       442 1.09545E+01 4.39587E+00 0.00000E+00
 -1       443 4.89609E+01 3.24707E+01 0.00000E+00
 -1       444 4.63891E+01 2.90989E+01 0.00000E+00
 -1       445 3.58885E+01 4.53948E+01 0.00000E+00
 -1       446 5.19600E+00 3.82125E+01 0.00000E+00
 -1       447 4.05750E+01 4.60671E+01 0.00000E+00
 -1       448 4.47455E+01 2.79998E+01 0.00000E+00
 -1       449 4.27248E+01 2.72385E+01 0.00000E+00
 -1       450 4.08758E+01 2.67221E+01 0.00000E+00
 -1       451 3.87135E+01 2.69469E+01 0.00000E+00
 -1       452 3.68555E+01 2.71839E+01 0.00000E+00
 -1       453 3.47968E+01 2.82791E+01 0.00000E+00
 -1       454 3.34984E+01 2.94298E+01 0.00000E+00
 -1       455 3.19881E+01 3.11094E+01 0.00000E+00
 -1       456 3.10371E+01 3.27451E+01 0.00000E+00
 -1       457 3.05258E+01 3.47048E+01 0.00000E+00
 -1       458 3.04474E+01 3.70892E+01 0.00000E+00
 -1       459 3.07102E+01 3.89632E+01 0.00000E+00
 -1       460 3.14940E+01 4.07379E+01 0.00000E+00
 -1       461 3.25677E+01 4.28016E+01 0.00000E+00
 -1       462 4.52577E+01 4.45456E+01 0.00000E+00
 -1       463 4.65846E+01 4.33130E+01 0.00000E+00
 -1       464 4.76790E+01 4.20409E+01 0.00000E+00
 -1       465 4.92036E+01 4.02120E+01 0.00000E+00
 -1       466 4.96247E+01 3.85904E+01 0.00000E+00
 -1       467 4.76505E+01 3.03738E+01 0.00000E+00
 -1       468 4.93831E+01 3.44421E+01 0.00000E+00
 -1       469 4.93308E+01 3.07422E+01 0.00000E+00
 -1       470 1.44589E+02 4.32984E+01 0.00000E+00
 -1       471 3.82551E+01 4.59144E+01 0.00000E+00
 -1       472 2.93425E+01 3.58574E+01 0.00000E+00
 -1       473 3.41140E+01 4.46873E+01 0.00000E+00
 -1       474 7.79400E+00 3.08500E+01 0.00000E+00
 -1       475 7.79400E+00 3.38000E+01 0.00000E+00
 -1       476 7.79400E+00 2.49500E+01 0.00000E+00
 -1       477 7.79400E+00 2.20000E+01 0.00000E+00
 -1       478 7.79400E+00 1.91000E+01 0.00000E+00
 -1       479 7.79400E+00 1.61500E+01 0.00000E+00
 -1       480 7.79400E+00 1.32000E+01 0.00000E+00
 -1       481 7.79400E+00 1.02500E+01 0.00000E+00
 -1       482 7.79400E+00 7.30000E+00 0.00000E+00
 -1       483 8.16450E+00 5.65312E+00 0.00000E+00
 -1       484 1.05000E+01 4.22060E+01 0.00000E+00
 -1       485 5.12723E+01 3.75952E+01 0.00000E+00
 -1       486 1.35000E+01 4.22060E+01 0.00000E+00
 -1       487 1.65000E+01 4.22060E+01 0.00000E+00
 -1       488 1.95000E+01 4.22060E+01 0.00000E+00
 -1       489 2.25000E+01 4.22060E+01 0.00000E+00
 -1       490 2.55000E+01 4.22060E+01 0.00000E+00
 -1       491 2.85000E+01 4.22060E+01 0.00000E+00
 -1       492 5.30250E+01 4.28438E+01 0.00000E+00
 -1       493 5.60250E+01 4.28438E+01 0.00000E+00
 -1       494 5.90250E+01 4.28438E+01 0.00000E+00
 -1       495 6.20250E+01 4.28438E+01 0.00000E+00
 -1       496 6.50250E+01 4.28438E+01 0.00000E+00
 -1       497 6.80250E+01 4.28438E+01 0.00000E+00
 -1       498 7.10250E+01 4.28438E+01 0.00000E+00
 -1       499 7.40250E+01 4.28438E+01 0.00000E+00
 -1       500 7.70250E+01 4.28438E+01 0.00000E+00
 -1       501 8.00250E+01 4.28438E+01 0.00000E+00
 -1       502 8.30250E+01 4.28438E+01 0.00000E+00
 -1       503 8.58750E+01 4.28438E+01 0.00000E+00
 -1       504 8.88750E+01 4.28438E+01 0.00000E+00
 -1       505 9.18750E+01 4.28438E+01 0.00000E+00
 -1       506 9.48750E+01 4.28438E+01 0.00000E+00
 -1       507 9.78750E+01 4.28438E+01 0.00000E+00
 -1       508 1.00875E+02 4.28438E+01 0.00000E+00
 -1       509 1.03875E+02 4.28438E+01 0.00000E+00
 -1       510 1.06875E+02 4.28438E+01 0.00000E+00
 -1       511 1.09875E+02 4.28438E+01 0.00000E+00
 -1       512 1.12875E+02 4.28438E+01 0.00000E+00
 -1       513 1.15875E+02 4.28438E+01 0.00000E+00
 -1       514 1.18875E+02 4.28438E+01 0.00000E+00
 -1       515 1.21875E+02 4.28438E+01 0.00000E+00
 -1       516 1.24875E+02 4.28438E+01 0.00000E+00
 -1       517 1.27875E+02 4.28438E+01 0.00000E+00
 -1       518 1.30875E+02 4.28438E+01 0.00000E+00
 -1       519 1.33875E+02 4.28438E+01 0.00000E+00
 -1       520 1.36875E+02 4.28438E+01 0.00000E+00
 -1       521 1.39875E+02 4.28438E+01 0.00000E+00
 -1       522 1.42232E+02 4.30711E+01 0.00000E+00
 -1       523 2.08740E+01 7.38350E+00 0.00000E+00
 -1       524 1.78740E+01 7.38350E+00 0.00000E+00
 -1       525 1.48740E+01 7.38350E+00 0.00000E+00
 -1       526 2.38740E+01 7.38350E+00 0.00000E+00
 -1       527 2.68740E+01 7.38350E+00 0.00000E+00
 -1       528 2.98740E+01 7.38350E+00 0.00000E+00
 -1       529 3.28740E+01 7.38350E+00 0.00000E+00
 -1       530 3.58740E+01 7.38350E+00 0.00000E+00
 -1       531 3.88740E+01 7.38350E+00 0.00000E+00
 -1       532 4.18740E+01 7.38350E+00 0.00000E+00
 -1       533 4.48740E+01 7.38350E+00 0.00000E+00
 -1       534 4.78740E+01 7.38350E+00 0.00000E+00
 -1       535 5.08740E+01 7.38350E+00 0.00000E+00
 -1       536 5.38740E+01 7.38350E+00 0.00000E+00
 -1       537 5.68740E+01 7.38350E+00 0.00000E+00
 -1       538 5.98740E+01 7.38350E+00 0.00000E+00
 -1       539 6.28740E+01 7.38350E+00 0.00000E+00
 -1       540 6.58740E+01 7.38350E+00 0.00000E+00
 -1       541 6.88740E+01 7.38350E+00 0.00000E+00
 -1       542 7.18740E+01 7.38350E+00 0.00000E+00
 -1       543 7.48740E+01 7.38350E+00 0.00000E+00
 -1       544 7.78740E+01 7.38350E+00 0.00000E+00
 -1       545 8.08740E+01 7.38350E+00 0.00000E+00
 -1       546 8.38740E+01 7.38350E+00 0.00000E+00
 -1       547 8.68740E+01 7.38350E+00 0.00000E+00
 -1       548 8.98740E+01 7.38350E+00 0.00000E+00
 -1       549 9.28740E+01 7.38350E+00 0.00000E+00
 -1       550 9.58740E+01 7.38350E+00 0.00000E+00
 -1       551 9.88740E+01 7.38350E+00 0.00000E+00
 -1       552 1.01874E+02 7.38350E+00 0.00000E+00
 -1       553 1.04874E+02 7.38350E+00 0.00000E+00
 -1       554 1.07874E+02 7.38350E+00 0.00000E+00
 -1       555 1.10874E+02 7.38350E+00 0.00000E+00
 -1       556 1.13874E+02 7.38350E+00 0.00000E+00
 -1       557 1.16874E+02 7.38350E+00 0.00000E+00
 -1       558 1.19874E+02 7.38350E+00 0.00000E+00
 -1       559 1.22874E+02 7.38350E+00 0.00000E+00
 -1       560 1.25874E+02 7.38350E+00 0.00000E+00
 -1       561 1.28874E+02 7.38350E+00 0.00000E+00
 -1       562 1.31874E+02 7.38350E+00 0.00000E+00
 -1       563 1.34874E+02 7.38350E+00 0.00000E+00
 -1       564 1.37874E+02 7.38350E+00 0.00000E+00
 -1       565 1.40874E+02 7.38350E+00 0.00000E+00
 -1       566 1.42206E+02 1.61750E+01 0.00000E+00
 -1       567 1.42206E+02 1.32750E+01 0.00000E+00
 -1       568 1.42206E+02 1.03250E+01 0.00000E+00
 -1       569 1.42206E+02 1.91250E+01 0.00000E+00
 -1       570 1.42206E+02 2.20750E+01 0.00000E+00
 -1       571 1.42206E+02 2.50250E+01 0.00000E+00
 -1       572 1.42206E+02 2.79750E+01 0.00000E+00
 -1       573 1.42206E+02 3.08750E+01 0.00000E+00
 -1       574 1.42206E+02 3.38250E+01 0.00000E+00
 -1       575 1.42206E+02 3.67750E+01 0.00000E+00
 -1       576 1.42206E+02 3.97250E+01 0.00000E+00
 -1       577 5.06852E+01 3.31323E+01 0.00000E+00
 -1       578 5.11404E+01 3.50015E+01 0.00000E+00
 -1       579 4.96944E+01 4.21710E+01 0.00000E+00
 -1       580 3.50600E+01 2.62913E+01 0.00000E+00
 -1       581 7.79400E+00 2.79000E+01 0.00000E+00
 -1       582 2.97401E+01 3.08968E+01 0.00000E+00
 -1       583 4.43103E+01 2.60925E+01 0.00000E+00