    1C
    1UUSER                                                              
    1UDATE              27.october.2022                                 
    1UTIME              00:36:03                                        
    1UHOST                                                              
    1UPGM               CalculiX                                        
    1UVERSION           Version 2.17                             
    1UCOMPILETIME       Thu Jul 23 21:43:50 CEST 2020                    
    1UDIR                                                               
    1UDBN                                                               
    1UMAT    1SOLIDMATERIAL                                             
    2C                          4275                                     1
 -1         1 8.18334E+01 2.18182E+01 0.00000E+00
 -1         2 8.50737E+01 1.59136E+01 0.00000E+00
 -1         3 1.50000E+02 0.00000E+00 0.00000E+00
 -1         4 1.50000E+02 5.00000E+01 0.00000E+00
 -1         5 0.00000E+00 0.00000E+00 0.00000E+00
 -1         6 0.00000E+00 5.00000E+01 0.00000E+00
 -1         7 0.00000E+00 4.70500E+01 0.00000E+00
 -1         8 0.00000E+00 4.41000E+01 0.00000E+00
 -1         9 0.00000E+00 4.11500E+01 0.00000E+00
 -1        10 0.00000E+00 3.82000E+01 0.00000E+00
 -1        11 0.00000E+00 3.52500E+01 0.00000E+00
 -1        12 0.00000E+00 3.23500E+01 0.00000E+00
 -1        13 0.00000E+00 2.94000E+01 0.00000E+00
 -1        14 0.00000E+00 2.64500E+01 0.00000E+00
 -1        15 0.00000E+00 2.35000E+01 0.00000E+00
 -1        16 0.00000E+00 2.05500E+01 0.00000E+00
 -1        17 0.00000E+00 1.76000E+01 0.00000E+00
 -1        18 0.00000E+00 1.47000E+01 0.00000E+00
 -1        19 0.00000E+00 1.17500E+01 0.00000E+00
 -1        20 0.00000E+00 8.80000E+00 0.00000E+00
 -1        21 0.00000E+00 5.85000E+00 0.00000E+00
 -1        22 0.00000E+00 2.90000E+00 0.00000E+00
 -1        23 3.15000E+00 5.00000E+01 0.00000E+00
 -1        24 6.15000E+00 5.00000E+01 0.00000E+00
 -1        25 9.15000E+00 5.00000E+01 0.00000E+00
 -1        26 1.21500E+01 5.00000E+01 0.00000E+00
 -1        27 1.51500E+01 5.00000E+01 0.00000E+00
 -1        28 1.81500E+01 5.00000E+01 0.00000E+00
 -1        29 2.11500E+01 5.00000E+01 0.00000E+00
 -1        30 2.41500E+01 5.00000E+01 0.00000E+00
 -1        31 2.71500E+01 5.00000E+01 0.00000E+00
 -1        32 3.01500E+01 5.00000E+01 0.00000E+00
 -1        33 3.31500E+01 5.00000E+01 0.00000E+00
 -1        34 3.61500E+01 5.00000E+01 0.00000E+00
 -1        35 3.91500E+01 5.00000E+01 0.00000E+00
 -1        36 4.21500E+01 5.00000E+01 0.00000E+00
 -1        37 4.51500E+01 5.00000E+01 0.00000E+00
 -1        38 4.81500E+01 5.00000E+01 0.00000E+00
 -1        39 5.11500E+01 5.00000E+01 0.00000E+00
 -1        40 5.41500E+01 5.00000E+01 0.00000E+00
 -1        41 5.71500E+01 5.00000E+01 0.00000E+00
 -1        42 6.01500E+01 5.00000E+01 0.00000E+00
 -1        43 6.31500E+01 5.00000E+01 0.00000E+00
 -1        44 6.61500E+01 5.00000E+01 0.00000E+00
 -1        45 6.91500E+01 5.00000E+01 0.00000E+00
 -1        46 7.21500E+01 5.00000E+01 0.00000E+00
 -1        47 7.51500E+01 5.00000E+01 0.00000E+00
 -1        48 7.81500E+01 5.00000E+01 0.00000E+00
 -1        49 8.11500E+01 5.00000E+01 0.00000E+00
 -1        50 8.41500E+01 5.00000E+01 0.00000E+00
 -1        51 8.71500E+01 5.00000E+01 0.00000E+00
 -1        52 9.01500E+01 5.00000E+01 0.00000E+00
 -1        53 9.31500E+01 5.00000E+01 0.00000E+00
 -1        54 9.61500E+01 5.00000E+01 0.00000E+00
 -1        55 9.91500E+01 5.00000E+01 0.00000E+00
 -1        56 1.02150E+02 5.00000E+01 0.00000E+00
 -1        57 1.05150E+02 5.00000E+01 0.00000E+00
 -1        58 1.08150E+02 5.00000E+01 0.00000E+00
 -1        59 1.11150E+02 5.00000E+01 0.00000E+00
 -1        60 1.14150E+02 5.00000E+01 0.00000E+00
 -1        61 1.17150E+02 5.00000E+01 0.00000E+00
 -1        62 1.20150E+02 5.00000E+01 0.00000E+00
 -1        63 1.23150E+02 5.00000E+01 0.00000E+00
 -1        64 1.26150E+02 5.00000E+01 0.00000E+00
 -1        65 1.29150E+02 5.00000E+01 0.00000E+00
 -1        66 1.32150E+02 5.00000E+01 0.00000E+00
 -1        67 1.35150E+02 5.00000E+01 0.00000E+00
 -1        68 1.38150E+02 5.00000E+01 0.00000E+00
 -1        69 1.41150E+02 5.00000E+01 0.00000E+00
 -1        70 1.44150E+02 5.00000E+01 0.00000E+00
 -1        71 1.47150E+02 5.00000E+01 0.00000E+00
 -1        72 3.00000E+00 0.00000E+00 0.00000E+00
 -1        73 6.00000E+00 0.00000E+00 0.00000E+00
 -1        74 9.00000E+00 0.00000E+00 0.00000E+00
 -1        75 1.20000E+01 0.00000E+00 0.00000E+00
 -1        76 1.50000E+01 0.00000E+00 0.00000E+00
 -1        77 1.78500E+01 0.00000E+00 0.00000E+00
 -1        78 2.08500E+01 0.00000E+00 0.00000E+00
 -1        79 2.38500E+01 0.00000E+00 0.00000E+00
 -1        80 2.68500E+01 0.00000E+00 0.00000E+00
 -1        81 2.98500E+01 0.00000E+00 0.00000E+00
 -1        82 3.27000E+01 0.00000E+00 0.00000E+00
 -1        83 3.57000E+01 0.00000E+00 0.00000E+00
 -1        84 3.87000E+01 0.00000E+00 0.00000E+00
 -1        85 4.17000E+01 0.00000E+00 0.00000E+00
 -1        86 4.47000E+01 0.00000E+00 0.00000E+00
 -1        87 4.77000E+01 0.00000E+00 0.00000E+00
 -1        88 5.05500E+01 0.00000E+00 0.00000E+00
 -1        89 5.35500E+01 0.00000E+00 0.00000E+00
 -1        90 5.65500E+01 0.00000E+00 0.00000E+00
 -1        91 5.95500E+01 0.00000E+00 0.00000E+00
 -1        92 6.25500E+01 0.00000E+00 0.00000E+00
 -1        93 6.54000E+01 0.00000E+00 0.00000E+00
 -1        94 6.84000E+01 0.00000E+00 0.00000E+00
 -1        95 7.14000E+01 0.00000E+00 0.00000E+00
 -1        96 7.42500E+01 0.00000E+00 0.00000E+00
 -1        97 7.69500E+01 0.00000E+00 0.00000E+00
 -1        98 7.93500E+01 0.00000E+00 0.00000E+00
 -1        99 8.17500E+01 0.00000E+00 0.00000E+00
 -1       100 8.47500E+01 0.00000E+00 0.00000E+00
 -1       101 8.76000E+01 0.00000E+00 0.00000E+00
 -1       102 9.06000E+01 0.00000E+00 0.00000E+00
 -1       103 9.36000E+01 0.00000E+00 0.00000E+00
 -1       104 9.66000E+01 0.00000E+00 0.00000E+00
 -1       105 9.96000E+01 0.00000E+00 0.00000E+00
 -1       106 1.02450E+02 0.00000E+00 0.00000E+00
 -1       107 1.05450E+02 0.00000E+00 0.00000E+00
 -1       108 1.08450E+02 0.00000E+00 0.00000E+00
 -1       109 1.11450E+02 0.00000E+00 0.00000E+00
 -1       110 1.14450E+02 0.00000E+00 0.00000E+00
 -1       111 1.17450E+02 0.00000E+00 0.00000E+00
 -1       112 1.20300E+02 0.00000E+00 0.00000E+00
 -1       113 1.23300E+02 0.00000E+00 0.00000E+00
 -1       114 1.26300E+02 0.00000E+00 0.00000E+00
 -1       115 1.29300E+02 0.00000E+00 0.00000E+00
 -1       116 1.32300E+02 0.00000E+00 0.00000E+00
 -1       117 1.35150E+02 0.00000E+00 0.00000E+00
 -1       118 1.38150E+02 0.00000E+00 0.00000E+00
 -1       119 1.41150E+02 0.00000E+00 0.00000E+00
 -1       120 1.44150E+02 0.00000E+00 0.00000E+00
 -1       121 1.47150E+02 0.00000E+00 0.00000E+00
 -1       122 1.50000E+02 2.95000E+00 0.00000E+00
 -1       123 1.50000E+02 5.90000E+00 0.00000E+00
 -1       124 1.50000E+02 8.85000E+00 0.00000E+00
 -1       125 1.50000E+02 1.18000E+01 0.00000E+00
 -1       126 1.50000E+02 1.47500E+01 0.00000E+00
 -1       127 1.50000E+02 1.76500E+01 0.00000E+00
 -1       128 1.50000E+02 2.06000E+01 0.00000E+00
 -1       129 1.50000E+02 2.35500E+01 0.00000E+00
 -1       130 1.50000E+02 2.65000E+01 0.00000E+00
 -1       131 1.50000E+02 2.94500E+01 0.00000E+00
 -1       132 1.50000E+02 3.24000E+01 0.00000E+00
 -1       133 1.50000E+02 3.53000E+01 0.00000E+00
 -1       134 1.50000E+02 3.82500E+01 0.00000E+00
 -1       135 1.50000E+02 4.12000E+01 0.00000E+00
 -1       136 1.50000E+02 4.41500E+01 0.00000E+00
 -1       137 1.50000E+02 4.71000E+01 0.00000E+00
 -1       138 8.48828E+01 1.42903E+01 0.00000E+00
 -1       139 8.44164E+01 1.29522E+01 0.00000E+00
 -1       140 8.36525E+01 1.16855E+01 0.00000E+00
 -1       141 8.26786E+01 1.06415E+01 0.00000E+00
 -1       142 8.14903E+01 9.80400E+00 0.00000E+00
 -1       143 8.01325E+01 9.22318E+00 0.00000E+00
 -1       144 7.87339E+01 8.94476E+00 0.00000E+00
 -1       145 7.71510E+01 8.97464E+00 0.00000E+00
 -1       146 7.57338E+01 9.31622E+00 0.00000E+00
 -1       147 7.44177E+01 9.94411E+00 0.00000E+00
 -1       148 7.33040E+01 1.07901E+01 0.00000E+00
 -1       149 7.23715E+01 1.18534E+01 0.00000E+00
 -1       150 7.16367E+01 1.31629E+01 0.00000E+00
 -1       151 7.11917E+01 1.46332E+01 0.00000E+00
 -1       152 7.10772E+01 1.61351E+01 0.00000E+00
 -1       153 7.12801E+01 1.76009E+01 0.00000E+00
 -1       154 7.17745E+01 1.89664E+01 0.00000E+00
 -1       155 7.26035E+01 2.02813E+01 0.00000E+00
 -1       156 7.36131E+01 2.13083E+01 0.00000E+00
 -1       157 7.47656E+01 2.20826E+01 0.00000E+00
 -1       158 7.61414E+01 2.26416E+01 0.00000E+00
 -1       159 7.76821E+01 2.29026E+01 0.00000E+00
 -1       160 7.91316E+01 2.28332E+01 0.00000E+00
 -1       161 8.04581E+01 2.24949E+01 0.00000E+00
 -1       162 8.29315E+01 2.09535E+01 0.00000E+00
 -1       163 8.38554E+01 1.98597E+01 0.00000E+00
 -1       164 8.45237E+01 1.86332E+01 0.00000E+00
 -1       165 8.49316E+01 1.73167E+01 0.00000E+00
 -1       166 2.59800E+00 4.55750E+01 0.00000E+00
 -1       167 2.59800E+00 4.26250E+01 0.00000E+00
 -1       168 2.59800E+00 3.96750E+01 0.00000E+00
 -1       169 2.59800E+00 3.67250E+01 0.00000E+00
 -1       170 2.59800E+00 3.38250E+01 0.00000E+00
 -1       171 2.59800E+00 3.08750E+01 0.00000E+00
 -1       172 2.59800E+00 2.79250E+01 0.00000E+00
 -1       173 2.59800E+00 2.49750E+01 0.00000E+00
 -1       174 2.59800E+00 2.20250E+01 0.00000E+00
 -1       175 2.59800E+00 1.90750E+01 0.00000E+00
 -1       176 2.59800E+00 1.61750E+01 0.00000E+00
 -1       177 2.59800E+00 1.32250E+01 0.00000E+00
 -1       178 2.59800E+00 1.02750E+01 0.00000E+00
 -1       179 2.59800E+00 7.32500E+00 0.00000E+00
 -1       180 2.59800E+00 4.37500E+00 0.00000E+00
 -1       181 4.65000E+00 4.74020E+01 0.00000E+00
 -1       182 7.65000E+00 4.74020E+01 0.00000E+00
 -1       183 1.06500E+01 4.74020E+01 0.00000E+00
 -1       184 1.36500E+01 4.74020E+01 0.00000E+00
 -1       185 1.66500E+01 4.74020E+01 0.00000E+00
 -1       186 1.96500E+01 4.74020E+01 0.00000E+00
 -1       187 2.26500E+01 4.74020E+01 0.00000E+00
 -1       188 2.56500E+01 4.74020E+01 0.00000E+00
 -1       189 2.86500E+01 4.74020E+01 0.00000E+00
 -1       190 3.16500E+01 4.74020E+01 0.00000E+00
 -1       191 3.46500E+01 4.74020E+01 0.00000E+00
 -1       192 3.76500E+01 4.74020E+01 0.00000E+00
 -1       193 4.06500E+01 4.74020E+01 0.00000E+00
 -1       194 4.36500E+01 4.74020E+01 0.00000E+00
 -1       195 4.66500E+01 4.74020E+01 0.00000E+00
 -1       196 4.96500E+01 4.74020E+01 0.00000E+00
 -1       197 5.26500E+01 4.74020E+01 0.00000E+00
 -1       198 5.56500E+01 4.74020E+01 0.00000E+00
 -1       199 5.86500E+01 4.74020E+01 0.00000E+00
 -1       200 6.16500E+01 4.74020E+01 0.00000E+00
 -1       201 6.46500E+01 4.74020E+01 0.00000E+00
 -1       202 6.76500E+01 4.74020E+01 0.00000E+00
 -1       203 7.06500E+01 4.74020E+01 0.00000E+00
 -1       204 7.36500E+01 4.74020E+01 0.00000E+00
 -1       205 7.66500E+01 4.74020E+01 0.00000E+00
 -1       206 7.96500E+01 4.74020E+01 0.00000E+00
 -1       207 8.26500E+01 4.74020E+01 0.00000E+00
 -1       208 8.56500E+01 4.74020E+01 0.00000E+00
 -1       209 8.86500E+01 4.74020E+01 0.00000E+00
 -1       210 9.16500E+01 4.74020E+01 0.00000E+00
 -1       211 9.46500E+01 4.74020E+01 0.00000E+00
 -1       212 9.76500E+01 4.74020E+01 0.00000E+00
 -1       213 1.00650E+02 4.74020E+01 0.00000E+00
 -1       214 1.03650E+02 4.74020E+01 0.00000E+00
 -1       215 1.06650E+02 4.74020E+01 0.00000E+00
 -1       216 1.09650E+02 4.74020E+01 0.00000E+00
 -1       217 1.12650E+02 4.74020E+01 0.00000E+00
 -1       218 1.15650E+02 4.74020E+01 0.00000E+00
 -1       219 1.18650E+02 4.74020E+01 0.00000E+00
 -1       220 1.21650E+02 4.74020E+01 0.00000E+00
 -1       221 1.24650E+02 4.74020E+01 0.00000E+00
 -1       222 1.27650E+02 4.74020E+01 0.00000E+00
 -1       223 1.30650E+02 4.74020E+01 0.00000E+00
 -1       224 1.33650E+02 4.74020E+01 0.00000E+00
 -1       225 1.36650E+02 4.74020E+01 0.00000E+00
 -1       226 1.39650E+02 4.74020E+01 0.00000E+00
 -1       227 1.42650E+02 4.74020E+01 0.00000E+00
 -1       228 1.45650E+02 4.74020E+01 0.00000E+00
 -1       229 4.50000E+00 2.59800E+00 0.00000E+00
 -1       230 7.50000E+00 2.59800E+00 0.00000E+00
 -1       231 1.05000E+01 2.59800E+00 0.00000E+00
 -1       232 1.35000E+01 2.59800E+00 0.00000E+00
 -1       233 1.63500E+01 2.59800E+00 0.00000E+00
 -1       234 1.93500E+01 2.59800E+00 0.00000E+00
 -1       235 2.23500E+01 2.59800E+00 0.00000E+00
 -1       236 2.53500E+01 2.59800E+00 0.00000E+00
 -1       237 2.83500E+01 2.59800E+00 0.00000E+00
 -1       238 3.12000E+01 2.59800E+00 0.00000E+00
 -1       239 3.42000E+01 2.59800E+00 0.00000E+00
 -1       240 3.72000E+01 2.59800E+00 0.00000E+00
 -1       241 4.02000E+01 2.59800E+00 0.00000E+00
 -1       242 4.32000E+01 2.59800E+00 0.00000E+00
 -1       243 4.62000E+01 2.59800E+00 0.00000E+00
 -1       244 4.90500E+01 2.59800E+00 0.00000E+00
 -1       245 5.20500E+01 2.59800E+00 0.00000E+00
 -1       246 5.50500E+01 2.59800E+00 0.00000E+00
 -1       247 5.80500E+01 2.59800E+00 0.00000E+00
 -1       248 6.10500E+01 2.59800E+00 0.00000E+00
 -1       249 6.39000E+01 2.59800E+00 0.00000E+00
 -1       250 6.69000E+01 2.59800E+00 0.00000E+00
 -1       251 6.99000E+01 2.59800E+00 0.00000E+00
 -1       252 7.27500E+01 2.59800E+00 0.00000E+00
 -1       253 7.54500E+01 2.59800E+00 0.00000E+00
 -1       254 7.78500E+01 2.59800E+00 0.00000E+00
 -1       255 8.02500E+01 2.59800E+00 0.00000E+00
 -1       256 8.32500E+01 2.59800E+00 0.00000E+00
 -1       257 8.61000E+01 2.59800E+00 0.00000E+00
 -1       258 8.91000E+01 2.59800E+00 0.00000E+00
 -1       259 9.21000E+01 2.59800E+00 0.00000E+00
 -1       260 9.51000E+01 2.59800E+00 0.00000E+00
 -1       261 9.81000E+01 2.59800E+00 0.00000E+00
 -1       262 1.00950E+02 2.59800E+00 0.00000E+00
 -1       263 1.03950E+02 2.59800E+00 0.00000E+00
 -1       264 1.06950E+02 2.59800E+00 0.00000E+00
 -1       265 1.09950E+02 2.59800E+00 0.00000E+00
 -1       266 1.12950E+02 2.59800E+00 0.00000E+00
 -1       267 1.15950E+02 2.59800E+00 0.00000E+00
 -1       268 1.18800E+02 2.59800E+00 0.00000E+00
 -1       269 1.21800E+02 2.59800E+00 0.00000E+00
 -1       270 1.24800E+02 2.59800E+00 0.00000E+00
 -1       271 1.27800E+02 2.59800E+00 0.00000E+00
 -1       272 1.30800E+02 2.59800E+00 0.00000E+00
 -1       273 1.33650E+02 2.59800E+00 0.00000E+00
 -1       274 1.36650E+02 2.59800E+00 0.00000E+00
 -1       275 1.39650E+02 2.59800E+00 0.00000E+00
 -1       276 1.42650E+02 2.59800E+00 0.00000E+00
 -1       277 1.45650E+02 2.59800E+00 0.00000E+00
 -1       278 1.47402E+02 4.42500E+00 0.00000E+00
 -1       279 1.47402E+02 7.37500E+00 0.00000E+00
 -1       280 1.47402E+02 1.03250E+01 0.00000E+00
 -1       281 1.47402E+02 1.32750E+01 0.00000E+00
 -1       282 1.47402E+02 1.61750E+01 0.00000E+00
 -1       283 1.47402E+02 1.91250E+01 0.00000E+00
 -1       284 1.47402E+02 2.20750E+01 0.00000E+00
 -1       285 1.47402E+02 2.50250E+01 0.00000E+00
 -1       286 1.47402E+02 2.79750E+01 0.00000E+00
 -1       287 1.47402E+02 3.09250E+01 0.00000E+00
 -1       288 1.47402E+02 3.38250E+01 0.00000E+00
 -1       289 1.47402E+02 3.67750E+01 0.00000E+00
 -1       290 1.47402E+02 3.97250E+01 0.00000E+00
 -1       291 1.47402E+02 4.26750E+01 0.00000E+00
 -1       292 1.46526E+02 4.50385E+01 0.00000E+00
 -1       293 8.65152E+01 1.49213E+01 0.00000E+00
 -1       294 8.57945E+01 1.32222E+01 0.00000E+00
 -1       295 8.51444E+01 1.16495E+01 0.00000E+00
 -1       296 8.41134E+01 1.02794E+01 0.00000E+00
 -1       297 8.27829E+01 9.23176E+00 0.00000E+00
 -1       298 8.13212E+01 8.32186E+00 0.00000E+00
 -1       299 7.96863E+01 7.81273E+00 0.00000E+00
 -1       300 7.79164E+01 7.57998E+00 0.00000E+00
 -1       301 7.61583E+01 7.96678E+00 0.00000E+00
 -1       302 7.45176E+01 8.46031E+00 0.00000E+00
 -1       303 7.31275E+01 9.40161E+00 0.00000E+00
 -1       304 7.19262E+01 1.05223E+01 0.00000E+00
 -1       305 7.08006E+01 1.18329E+01 0.00000E+00
 -1       306 7.00934E+01 1.34983E+01 0.00000E+00
 -1       307 6.96749E+01 1.52728E+01 0.00000E+00
 -1       308 6.98947E+01 1.70457E+01 0.00000E+00
 -1       309 7.02297E+01 1.87534E+01 0.00000E+00
 -1       310 7.10217E+01 2.03599E+01 0.00000E+00
 -1       311 7.21839E+01 2.17035E+01 0.00000E+00
 -1       312 7.35132E+01 2.27018E+01 0.00000E+00
 -1       313 7.49340E+01 2.36405E+01 0.00000E+00
 -1       314 7.66532E+01 2.42979E+01 0.00000E+00
 -1       315 7.84649E+01 2.40789E+01 0.00000E+00
 -1       316 8.00944E+01 2.38389E+01 0.00000E+00
 -1       317 8.17180E+01 2.33196E+01 0.00000E+00
 -1       318 8.31325E+01 2.23384E+01 0.00000E+00
 -1       319 8.45117E+01 2.13511E+01 0.00000E+00
 -1       320 8.53277E+01 1.98667E+01 0.00000E+00
 -1       321 8.58858E+01 1.83337E+01 0.00000E+00
 -1       322 8.62089E+01 1.67373E+01 0.00000E+00
 -1       323 5.19600E+00 4.11500E+01 0.00000E+00
 -1       324 5.19600E+00 4.41000E+01 0.00000E+00
 -1       325 5.19600E+00 3.52750E+01 0.00000E+00
 -1       326 5.19600E+00 3.23250E+01 0.00000E+00
 -1       327 5.19600E+00 2.93750E+01 0.00000E+00
 -1       328 5.19600E+00 2.64250E+01 0.00000E+00
 -1       329 5.19600E+00 2.34750E+01 0.00000E+00
 -1       330 5.19600E+00 2.05250E+01 0.00000E+00
 -1       331 5.19600E+00 1.76250E+01 0.00000E+00
 -1       332 5.19600E+00 1.46750E+01 0.00000E+00
 -1       333 5.19600E+00 1.17250E+01 0.00000E+00
 -1       334 5.19600E+00 8.77500E+00 0.00000E+00
 -1       335 5.19600E+00 5.82500E+00 0.00000E+00
 -1       336 8.56646E+01 1.01851E+01 0.00000E+00
 -1       337 9.15000E+00 4.48040E+01 0.00000E+00
 -1       338 1.21500E+01 4.48040E+01 0.00000E+00
 -1       339 1.51500E+01 4.48040E+01 0.00000E+00
 -1       340 1.81500E+01 4.48040E+01 0.00000E+00
 -1       341 2.11500E+01 4.48040E+01 0.00000E+00
 -1       342 2.41500E+01 4.48040E+01 0.00000E+00
 -1       343 2.71500E+01 4.48040E+01 0.00000E+00
 -1       344 3.01500E+01 4.48040E+01 0.00000E+00
 -1       345 3.31500E+01 4.48040E+01 0.00000E+00
 -1       346 3.61500E+01 4.48040E+01 0.00000E+00
 -1       347 3.91500E+01 4.48040E+01 0.00000E+00
 -1       348 4.21500E+01 4.48040E+01 0.00000E+00
 -1       349 4.51500E+01 4.48040E+01 0.00000E+00
 -1       350 4.81500E+01 4.48040E+01 0.00000E+00
 -1       351 5.11500E+01 4.48040E+01 0.00000E+00
 -1       352 5.41500E+01 4.48040E+01 0.00000E+00
 -1       353 5.71500E+01 4.48040E+01 0.00000E+00
 -1       354 6.01500E+01 4.48040E+01 0.00000E+00
 -1       355 6.31500E+01 4.48040E+01 0.00000E+00
 -1       356 6.61500E+01 4.48040E+01 0.00000E+00
 -1       357 6.91500E+01 4.48040E+01 0.00000E+00
 -1       358 7.21500E+01 4.48040E+01 0.00000E+00
 -1       359 7.51500E+01 4.48040E+01 0.00000E+00
 -1       360 7.81500E+01 4.48040E+01 0.00000E+00
 -1       361 8.11500E+01 4.48040E+01 0.00000E+00
 -1       362 8.41500E+01 4.48040E+01 0.00000E+00
 -1       363 8.71500E+01 4.48040E+01 0.00000E+00
 -1       364 9.01500E+01 4.48040E+01 0.00000E+00
 -1       365 9.31500E+01 4.48040E+01 0.00000E+00
 -1       366 9.61500E+01 4.48040E+01 0.00000E+00
 -1       367 9.91500E+01 4.48040E+01 0.00000E+00
 -1       368 1.02150E+02 4.48040E+01 0.00000E+00
 -1       369 1.05150E+02 4.48040E+01 0.00000E+00
 -1       370 1.08150E+02 4.48040E+01 0.00000E+00
 -1       371 1.11150E+02 4.48040E+01 0.00000E+00
 -1       372 1.14150E+02 4.48040E+01 0.00000E+00
 -1       373 1.17150E+02 4.48040E+01 0.00000E+00
 -1       374 1.20150E+02 4.48040E+01 0.00000E+00
 -1       375 1.23150E+02 4.48040E+01 0.00000E+00
 -1       376 1.26150E+02 4.48040E+01 0.00000E+00
 -1       377 1.29150E+02 4.48040E+01 0.00000E+00
 -1       378 1.32150E+02 4.48040E+01 0.00000E+00
 -1       379 1.35150E+02 4.48040E+01 0.00000E+00
 -1       380 1.38150E+02 4.48040E+01 0.00000E+00
 -1       381 1.41150E+02 4.48040E+01 0.00000E+00
 -1       382 1.43838E+02 4.49212E+01 0.00000E+00
 -1       383 1.20000E+01 5.19600E+00 0.00000E+00
 -1       384 9.00000E+00 5.19600E+00 0.00000E+00
 -1       385 1.48500E+01 5.19600E+00 0.00000E+00
 -1       386 1.78500E+01 5.19600E+00 0.00000E+00
 -1       387 2.08500E+01 5.19600E+00 0.00000E+00
 -1       388 2.38500E+01 5.19600E+00 0.00000E+00
 -1       389 2.68500E+01 5.19600E+00 0.00000E+00
 -1       390 2.97000E+01 5.19600E+00 0.00000E+00
 -1       391 3.27000E+01 5.19600E+00 0.00000E+00
 -1       392 3.57000E+01 5.19600E+00 0.00000E+00
 -1       393 3.87000E+01 5.19600E+00 0.00000E+00
 -1       394 4.17000E+01 5.19600E+00 0.00000E+00
 -1       395 4.47000E+01 5.19600E+00 0.00000E+00
 -1       396 4.75500E+01 5.19600E+00 0.00000E+00
 -1       397 5.05500E+01 5.19600E+00 0.00000E+00
 -1       398 5.35500E+01 5.19600E+00 0.00000E+00
 -1       399 5.65500E+01 5.19600E+00 0.00000E+00
 -1       400 5.95500E+01 5.19600E+00 0.00000E+00
 -1       401 6.24000E+01 5.19600E+00 0.00000E+00
 -1       402 6.54000E+01 5.19600E+00 0.00000E+00
 -1       403 6.84000E+01 5.19600E+00 0.00000E+00
 -1       404 7.12500E+01 5.19600E+00 0.00000E+00
 -1       405 7.39500E+01 5.19600E+00 0.00000E+00
 -1       406 7.90500E+01 4.81582E+00 0.00000E+00
 -1       407 8.20500E+01 4.81582E+00 0.00000E+00
 -1       408 8.49000E+01 4.81582E+00 0.00000E+00
 -1       409 8.79000E+01 4.81582E+00 0.00000E+00
 -1       410 9.09000E+01 4.81582E+00 0.00000E+00
 -1       411 9.39000E+01 4.81582E+00 0.00000E+00
 -1       412 9.69000E+01 4.81582E+00 0.00000E+00
 -1       413 9.97500E+01 4.81582E+00 0.00000E+00
 -1       414 1.02750E+02 4.81582E+00 0.00000E+00
 -1       415 1.05750E+02 4.81582E+00 0.00000E+00
 -1       416 1.08750E+02 4.81582E+00 0.00000E+00
 -1       417 1.11750E+02 4.81582E+00 0.00000E+00
 -1       418 1.14750E+02 4.81582E+00 0.00000E+00
 -1       419 1.17600E+02 4.81582E+00 0.00000E+00
 -1       420 1.20600E+02 4.81582E+00 0.00000E+00
 -1       421 1.23600E+02 4.81582E+00 0.00000E+00
 -1       422 1.26600E+02 4.81582E+00 0.00000E+00
 -1       423 1.29600E+02 4.81582E+00 0.00000E+00
 -1       424 1.32450E+02 4.81582E+00 0.00000E+00
 -1       425 1.35450E+02 4.81582E+00 0.00000E+00
 -1       426 1.38450E+02 4.81582E+00 0.00000E+00
 -1       427 1.41450E+02 4.81582E+00 0.00000E+00
 -1       428 8.73481E+01 1.35655E+01 0.00000E+00
 -1       429 1.44804E+02 1.18000E+01 0.00000E+00
 -1       430 1.44804E+02 8.85000E+00 0.00000E+00
 -1       431 1.44804E+02 5.90000E+00 0.00000E+00
 -1       432 1.44804E+02 1.47000E+01 0.00000E+00
 -1       433 1.44804E+02 1.76500E+01 0.00000E+00
 -1       434 1.44804E+02 2.06000E+01 0.00000E+00
 -1       435 1.44804E+02 2.35500E+01 0.00000E+00
 -1       436 1.44804E+02 2.65000E+01 0.00000E+00
 -1       437 1.44804E+02 2.94500E+01 0.00000E+00
 -1       438 1.44804E+02 3.23500E+01 0.00000E+00
 -1       439 1.44804E+02 3.53000E+01 0.00000E+00
 -1       440 1.44804E+02 3.82500E+01 0.00000E+00
 -1       441 1.44804E+02 4.12000E+01 0.00000E+00
 -1       442 8.66981E+01 1.19929E+01 0.00000E+00
 -1       443 8.79706E+01 1.61006E+01 0.00000E+00
 -1       444 5.19600E+00 3.82125E+01 0.00000E+00
 -1       445 8.27370E+01 7.67641E+00 0.00000E+00
 -1       446 8.09140E+01 6.74974E+00 0.00000E+00
 -1       447 7.90140E+01 6.07896E+00 0.00000E+00
 -1       448 7.67048E+01 6.26199E+00 0.00000E+00
 -1       449 7.49404E+01 6.89207E+00 0.00000E+00
 -1       450 7.30488E+01 7.78832E+00 0.00000E+00
 -1       451 7.15855E+01 8.95291E+00 0.00000E+00
 -1       452 7.01894E+01 1.01694E+01 0.00000E+00
 -1       453 6.91768E+01 1.21263E+01 0.00000E+00
 -1       454 6.84595E+01 1.40496E+01 0.00000E+00
 -1       455 6.84153E+01 1.63290E+01 0.00000E+00
 -1       456 6.87504E+01 1.80367E+01 0.00000E+00
 -1       457 6.92376E+01 2.02409E+01 0.00000E+00
 -1       458 7.04324E+01 2.20442E+01 0.00000E+00
 -1       459 7.20199E+01 2.33061E+01 0.00000E+00
 -1       460 7.34407E+01 2.42448E+01 0.00000E+00
 -1       461 7.52409E+01 2.54147E+01 0.00000E+00
 -1       462 7.77448E+01 2.57247E+01 0.00000E+00
 -1       463 7.93743E+01 2.54847E+01 0.00000E+00
 -1       464 8.14031E+01 2.51330E+01 0.00000E+00
 -1       465 8.32118E+01 2.39629E+01 0.00000E+00
 -1       466 8.45910E+01 2.29755E+01 0.00000E+00
 -1       467 8.61290E+01 2.12737E+01 0.00000E+00
 -1       468 8.69822E+01 1.96009E+01 0.00000E+00
 -1       469 8.74764E+01 1.78508E+01 0.00000E+00
 -1       470 8.43537E+01 8.60553E+00 0.00000E+00
 -1       471 7.69415E+01 4.52310E+00 0.00000E+00
 -1       472 8.88035E+01 1.47449E+01 0.00000E+00
 -1       473 7.79400E+00 3.08500E+01 0.00000E+00
 -1       474 7.79400E+00 3.38000E+01 0.00000E+00
 -1       475 7.79400E+00 2.49500E+01 0.00000E+00
 -1       476 7.79400E+00 2.20000E+01 0.00000E+00
 -1       477 7.79400E+00 1.91000E+01 0.00000E+00
 -1       478 7.79400E+00 1.61500E+01 0.00000E+00
 -1       479 7.79400E+00 1.32000E+01 0.00000E+00
 -1       480 7.79400E+00 1.02500E+01 0.00000E+00
 -1       481 8.39700E+00 7.72300E+00 0.00000E+00
 -1       482 1.06500E+01 4.22060E+01 0.00000E+00
 -1       483 1.36500E+01 4.22060E+01 0.00000E+00
 -1       484 1.66500E+01 4.22060E+01 0.00000E+00
 -1       485 1.96500E+01 4.22060E+01 0.00000E+00
 -1       486 2.26500E+01 4.22060E+01 0.00000E+00
 -1       487 2.56500E+01 4.22060E+01 0.00000E+00
 -1       488 2.86500E+01 4.22060E+01 0.00000E+00
 -1       489 3.16500E+01 4.22060E+01 0.00000E+00
 -1       490 3.46500E+01 4.22060E+01 0.00000E+00
 -1       491 3.76500E+01 4.22060E+01 0.00000E+00
 -1       492 4.06500E+01 4.22060E+01 0.00000E+00
 -1       493 4.36500E+01 4.22060E+01 0.00000E+00
 -1       494 4.66500E+01 4.22060E+01 0.00000E+00
 -1       495 4.96500E+01 4.22060E+01 0.00000E+00
 -1       496 5.26500E+01 4.22060E+01 0.00000E+00
 -1       497 5.56500E+01 4.22060E+01 0.00000E+00
 -1       498 5.86500E+01 4.22060E+01 0.00000E+00
 -1       499 6.16500E+01 4.22060E+01 0.00000E+00
 -1       500 6.46500E+01 4.22060E+01 0.00000E+00
 -1       501 6.76500E+01 4.22060E+01 0.00000E+00
 -1       502 7.06500E+01 4.22060E+01 0.00000E+00
 -1       503 7.36500E+01 4.22060E+01 0.00000E+00
 -1       504 7.66500E+01 4.22060E+01 0.00000E+00
 -1       505 7.96500E+01 4.22060E+01 0.00000E+00
 -1       506 8.26500E+01 4.22060E+01 0.00000E+00
 -1       507 8.56500E+01 4.22060E+01 0.00000E+00
 -1       508 8.86500E+01 4.22060E+01 0.00000E+00
 -1       509 9.16500E+01 4.22060E+01 0.00000E+00
 -1       510 9.46500E+01 4.22060E+01 0.00000E+00
 -1       511 9.76500E+01 4.22060E+01 0.00000E+00
 -1       512 1.00650E+02 4.22060E+01 0.00000E+00
 -1       513 1.03650E+02 4.22060E+01 0.00000E+00
 -1       514 1.06650E+02 4.22060E+01 0.00000E+00
 -1       515 1.09650E+02 4.22060E+01 0.00000E+00
 -1       516 1.12650E+02 4.22060E+01 0.00000E+00
 -1       517 1.15650E+02 4.22060E+01 0.00000E+00
 -1       518 1.18650E+02 4.22060E+01 0.00000E+00
 -1       519 1.21650E+02 4.22060E+01 0.00000E+00
 -1       520 1.24650E+02 4.22060E+01 0.00000E+00
 -1       521 1.27650E+02 4.22060E+01 0.00000E+00
 -1       522 1.30650E+02 4.22060E+01 0.00000E+00
 -1       523 1.33650E+02 4.22060E+01 0.00000E+00
 -1       524 1.36650E+02 4.22060E+01 0.00000E+00
 -1       525 1.39650E+02 4.22060E+01 0.00000E+00
 -1       526 1.13970E+01 7.72300E+00 0.00000E+00
 -1       527 1.93500E+01 7.79400E+00 0.00000E+00
 -1       528 2.23500E+01 7.79400E+00 0.00000E+00
 -1       529 2.53500E+01 7.79400E+00 0.00000E+00
 -1       530 2.82000E+01 7.79400E+00 0.00000E+00
 -1       531 3.12000E+01 7.79400E+00 0.00000E+00
 -1       532 3.42000E+01 7.79400E+00 0.00000E+00
 -1       533 3.72000E+01 7.79400E+00 0.00000E+00
 -1       534 4.02000E+01 7.79400E+00 0.00000E+00
 -1       535 4.32000E+01 7.79400E+00 0.00000E+00
 -1       536 4.60500E+01 7.79400E+00 0.00000E+00
 -1       537 4.90500E+01 7.79400E+00 0.00000E+00
 -1       538 5.20500E+01 7.79400E+00 0.00000E+00
 -1       539 5.50500E+01 7.79400E+00 0.00000E+00
 -1       540 5.80500E+01 7.79400E+00 0.00000E+00
 -1       541 6.09000E+01 7.79400E+00 0.00000E+00
 -1       542 6.39000E+01 7.79400E+00 0.00000E+00
 -1       543 6.69000E+01 7.79400E+00 0.00000E+00
 -1       544 6.98250E+01 7.07868E+00 0.00000E+00
 -1       545 8.94000E+01 7.20122E+00 0.00000E+00
 -1       546 9.24000E+01 7.20122E+00 0.00000E+00
 -1       547 9.54000E+01 7.20122E+00 0.00000E+00
 -1       548 9.82500E+01 7.20122E+00 0.00000E+00
 -1       549 1.01250E+02 7.20122E+00 0.00000E+00
 -1       550 1.04250E+02 7.20122E+00 0.00000E+00
 -1       551 1.07250E+02 7.20122E+00 0.00000E+00
 -1       552 1.10250E+02 7.20122E+00 0.00000E+00
 -1       553 1.13250E+02 7.20122E+00 0.00000E+00
 -1       554 1.16100E+02 7.20122E+00 0.00000E+00
 -1       555 1.19100E+02 7.20122E+00 0.00000E+00
 -1       556 1.22100E+02 7.20122E+00 0.00000E+00
 -1       557 1.25100E+02 7.20122E+00 0.00000E+00
 -1       558 1.28100E+02 7.20122E+00 0.00000E+00
 -1       559 1.30950E+02 7.20122E+00 0.00000E+00
 -1       560 1.33950E+02 7.20122E+00 0.00000E+00
 -1       561 1.36950E+02 7.20122E+00 0.00000E+00
 -1       562 1.39950E+02 7.20122E+00 0.00000E+00
 -1       563 8.75248E+01 1.03209E+01 0.00000E+00
 -1       564 1.42206E+02 1.32500E+01 0.00000E+00
 -1       565 1.42206E+02 1.91250E+01 0.00000E+00
 -1       566 1.42206E+02 2.20750E+01 0.00000E+00
 -1       567 1.42206E+02 2.50250E+01 0.00000E+00
 -1       568 1.42206E+02 2.79750E+01 0.00000E+00
 -1       569 1.42206E+02 3.08750E+01 0.00000E+00
 -1       570 1.42206E+02 3.38250E+01 0.00000E+00
 -1       571 1.42206E+02 3.67750E+01 0.00000E+00
 -1       572 1.42206E+02 3.97250E+01 0.00000E+00
 -1       573 8.83758E+01 1.22201E+01 0.00000E+00
 -1       574 8.62644E+01 8.35346E+00 0.00000E+00
 -1       575 8.65082E+01 2.31622E+01 0.00000E+00
 -1       576 1.63500E+01 7.79400E+00 0.00000E+00
 -1       577 1.42377E+02 8.02561E+00 0.00000E+00
 -1       578 8.07103E+01 2.71639E+01 0.00000E+00
 -1       579 7.35432E+01 2.60571E+01 0.00000E+00
 -1       580 7.00546E+01 2.41489E+01 0.00000E+00
 -1       581 6.67226E+01 1.51560E+01 0.00000E+00
 -1       582 1.42292E+02 1.06378E+01 0.00000E+00
 -1       583 1.42206E+02 1.61875E+01 0.00000E+00