    1C
    1UUSER                                                              
    1UDATE              27.october.2022                                 
    1UTIME              00:28:31                                        
    1UHOST                                                              
    1UPGM               CalculiX                                        
    1UVERSION           Version 2.17                             
    1UCOMPILETIME       Thu Jul 23 21:43:50 CEST 2020                    
    1UDIR                                                               
    1UDBN                                                               
    1UMAT    1SOLIDMATERIAL                                             
    2C                          4332                                     1
 -1         1 5.71861E+01 3.54545E+01 0.00000E+00
 -1         2 6.96467E+01 3.10748E+01 0.00000E+00
 -1         3 1.50000E+02 0.00000E+00 0.00000E+00
 -1         4 1.50000E+02 5.00000E+01 0.00000E+00
 -1         5 0.00000E+00 0.00000E+00 0.00000E+00
 -1         6 0.00000E+00 5.00000E+01 0.00000E+00
 -1         7 0.00000E+00 4.70500E+01 0.00000E+00
 -1         8 0.00000E+00 4.41000E+01 0.00000E+00
 -1         9 0.00000E+00 4.11500E+01 0.00000E+00
 -1        10 0.00000E+00 3.82000E+01 0.00000E+00
 -1        11 0.00000E+00 3.52500E+01 0.00000E+00
 -1        12 0.00000E+00 3.23500E+01 0.00000E+00
 -1        13 0.00000E+00 2.94000E+01 0.00000E+00
 -1        14 0.00000E+00 2.64500E+01 0.00000E+00
 -1        15 0.00000E+00 2.35000E+01 0.00000E+00
 -1        16 0.00000E+00 2.05500E+01 0.00000E+00
 -1        17 0.00000E+00 1.76000E+01 0.00000E+00
 -1        18 0.00000E+00 1.47000E+01 0.00000E+00
 -1        19 0.00000E+00 1.17500E+01 0.00000E+00
 -1        20 0.00000E+00 8.80000E+00 0.00000E+00
 -1        21 0.00000E+00 5.85000E+00 0.00000E+00
 -1        22 0.00000E+00 2.90000E+00 0.00000E+00
 -1        23 3.15000E+00 5.00000E+01 0.00000E+00
 -1        24 6.15000E+00 5.00000E+01 0.00000E+00
 -1        25 9.15000E+00 5.00000E+01 0.00000E+00
 -1        26 1.21500E+01 5.00000E+01 0.00000E+00
 -1        27 1.51500E+01 5.00000E+01 0.00000E+00
 -1        28 1.81500E+01 5.00000E+01 0.00000E+00
 -1        29 2.11500E+01 5.00000E+01 0.00000E+00
 -1        30 2.41500E+01 5.00000E+01 0.00000E+00
 -1        31 2.71500E+01 5.00000E+01 0.00000E+00
 -1        32 3.01500E+01 5.00000E+01 0.00000E+00
 -1        33 3.31500E+01 5.00000E+01 0.00000E+00
 -1        34 3.61500E+01 5.00000E+01 0.00000E+00
 -1        35 3.91500E+01 5.00000E+01 0.00000E+00
 -1        36 4.21500E+01 5.00000E+01 0.00000E+00
 -1        37 4.51500E+01 5.00000E+01 0.00000E+00
 -1        38 4.81500E+01 5.00000E+01 0.00000E+00
 -1        39 5.11500E+01 5.00000E+01 0.00000E+00
 -1        40 5.41500E+01 5.00000E+01 0.00000E+00
 -1        41 5.70000E+01 5.00000E+01 0.00000E+00
 -1        42 6.00000E+01 5.00000E+01 0.00000E+00
 -1        43 6.30000E+01 5.00000E+01 0.00000E+00
 -1        44 6.60000E+01 5.00000E+01 0.00000E+00
 -1        45 6.90000E+01 5.00000E+01 0.00000E+00
 -1        46 7.20000E+01 5.00000E+01 0.00000E+00
 -1        47 7.50000E+01 5.00000E+01 0.00000E+00
 -1        48 7.80000E+01 5.00000E+01 0.00000E+00
 -1        49 8.10000E+01 5.00000E+01 0.00000E+00
 -1        50 8.40000E+01 5.00000E+01 0.00000E+00
 -1        51 8.70000E+01 5.00000E+01 0.00000E+00
 -1        52 9.00000E+01 5.00000E+01 0.00000E+00
 -1        53 9.30000E+01 5.00000E+01 0.00000E+00
 -1        54 9.60000E+01 5.00000E+01 0.00000E+00
 -1        55 9.90000E+01 5.00000E+01 0.00000E+00
 -1        56 1.02000E+02 5.00000E+01 0.00000E+00
 -1        57 1.05000E+02 5.00000E+01 0.00000E+00
 -1        58 1.08000E+02 5.00000E+01 0.00000E+00
 -1        59 1.11000E+02 5.00000E+01 0.00000E+00
 -1        60 1.14000E+02 5.00000E+01 0.00000E+00
 -1        61 1.17000E+02 5.00000E+01 0.00000E+00
 -1        62 1.20000E+02 5.00000E+01 0.00000E+00
 -1        63 1.23000E+02 5.00000E+01 0.00000E+00
 -1        64 1.26000E+02 5.00000E+01 0.00000E+00
 -1        65 1.29000E+02 5.00000E+01 0.00000E+00
 -1        66 1.32000E+02 5.00000E+01 0.00000E+00
 -1        67 1.35000E+02 5.00000E+01 0.00000E+00
 -1        68 1.38000E+02 5.00000E+01 0.00000E+00
 -1        69 1.41000E+02 5.00000E+01 0.00000E+00
 -1        70 1.44000E+02 5.00000E+01 0.00000E+00
 -1        71 1.47000E+02 5.00000E+01 0.00000E+00
 -1        72 3.15000E+00 0.00000E+00 0.00000E+00
 -1        73 6.15000E+00 0.00000E+00 0.00000E+00
 -1        74 9.15000E+00 0.00000E+00 0.00000E+00
 -1        75 1.21500E+01 0.00000E+00 0.00000E+00
 -1        76 1.51500E+01 0.00000E+00 0.00000E+00
 -1        77 1.81500E+01 0.00000E+00 0.00000E+00
 -1        78 2.11500E+01 0.00000E+00 0.00000E+00
 -1        79 2.41500E+01 0.00000E+00 0.00000E+00
 -1        80 2.71500E+01 0.00000E+00 0.00000E+00
 -1        81 3.01500E+01 0.00000E+00 0.00000E+00
 -1        82 3.31500E+01 0.00000E+00 0.00000E+00
 -1        83 3.61500E+01 0.00000E+00 0.00000E+00
 -1        84 3.91500E+01 0.00000E+00 0.00000E+00
 -1        85 4.21500E+01 0.00000E+00 0.00000E+00
 -1        86 4.51500E+01 0.00000E+00 0.00000E+00
 -1        87 4.81500E+01 0.00000E+00 0.00000E+00
 -1        88 5.11500E+01 0.00000E+00 0.00000E+00
 -1        89 5.41500E+01 0.00000E+00 0.00000E+00
 -1        90 5.71500E+01 0.00000E+00 0.00000E+00
 -1        91 6.01500E+01 0.00000E+00 0.00000E+00
 -1        92 6.31500E+01 0.00000E+00 0.00000E+00
 -1        93 6.61500E+01 0.00000E+00 0.00000E+00
 -1        94 6.91500E+01 0.00000E+00 0.00000E+00
 -1        95 7.21500E+01 0.00000E+00 0.00000E+00
 -1        96 7.51500E+01 0.00000E+00 0.00000E+00
 -1        97 7.81500E+01 0.00000E+00 0.00000E+00
 -1        98 8.11500E+01 0.00000E+00 0.00000E+00
 -1        99 8.41500E+01 0.00000E+00 0.00000E+00
 -1       100 8.71500E+01 0.00000E+00 0.00000E+00
 -1       101 9.01500E+01 0.00000E+00 0.00000E+00
 -1       102 9.31500E+01 0.00000E+00 0.00000E+00
 -1       103 9.61500E+01 0.00000E+00 0.00000E+00
 -1       104 9.91500E+01 0.00000E+00 0.00000E+00
 -1       105 1.02150E+02 0.00000E+00 0.00000E+00
 -1       106 1.05150E+02 0.00000E+00 0.00000E+00
 -1       107 1.08150E+02 0.00000E+00 0.00000E+00
 -1       108 1.11150E+02 0.00000E+00 0.00000E+00
 -1       109 1.14150E+02 0.00000E+00 0.00000E+00
 -1       110 1.17150E+02 0.00000E+00 0.00000E+00
 -1       111 1.20150E+02 0.00000E+00 0.00000E+00
 -1       112 1.23150E+02 0.00000E+00 0.00000E+00
 -1       113 1.26150E+02 0.00000E+00 0.00000E+00
 -1       114 1.29150E+02 0.00000E+00 0.00000E+00
 -1       115 1.32150E+02 0.00000E+00 0.00000E+00
 -1       116 1.35150E+02 0.00000E+00 0.00000E+00
 -1       117 1.38150E+02 0.00000E+00 0.00000E+00
 -1       118 1.41150E+02 0.00000E+00 0.00000E+00
 -1       119 1.44150E+02 0.00000E+00 0.00000E+00
 -1       120 1.47150E+02 0.00000E+00 0.00000E+00
 -1       121 1.50000E+02 2.95000E+00 0.00000E+00
 -1       122 1.50000E+02 5.90000E+00 0.00000E+00
 -1       123 1.50000E+02 8.85000E+00 0.00000E+00
 -1       124 1.50000E+02 1.18000E+01 0.00000E+00
 -1       125 1.50000E+02 1.47500E+01 0.00000E+00
 -1       126 1.50000E+02 1.76500E+01 0.00000E+00
 -1       127 1.50000E+02 2.06000E+01 0.00000E+00
 -1       128 1.50000E+02 2.35500E+01 0.00000E+00
 -1       129 1.50000E+02 2.65000E+01 0.00000E+00
 -1       130 1.50000E+02 2.94500E+01 0.00000E+00
 -1       131 1.50000E+02 3.24000E+01 0.00000E+00
 -1       132 1.50000E+02 3.53000E+01 0.00000E+00
 -1       133 1.50000E+02 3.82500E+01 0.00000E+00
 -1       134 1.50000E+02 4.12000E+01 0.00000E+00
 -1       135 1.50000E+02 4.41500E+01 0.00000E+00
 -1       136 1.50000E+02 4.71000E+01 0.00000E+00
 -1       137 6.94895E+01 2.95997E+01 0.00000E+00
 -1       138 6.90313E+01 2.82050E+01 0.00000E+00
 -1       139 6.82845E+01 2.69258E+01 0.00000E+00
 -1       140 6.72968E+01 2.58426E+01 0.00000E+00
 -1       141 6.60602E+01 2.49635E+01 0.00000E+00
 -1       142 6.47333E+01 2.43931E+01 0.00000E+00
 -1       143 6.32723E+01 2.41028E+01 0.00000E+00
 -1       144 6.18538E+01 2.41199E+01 0.00000E+00
 -1       145 6.02578E+01 2.44951E+01 0.00000E+00
 -1       146 5.89503E+01 2.51304E+01 0.00000E+00
 -1       147 5.77341E+01 2.60882E+01 0.00000E+00
 -1       148 5.68155E+01 2.72021E+01 0.00000E+00
 -1       149 5.61461E+01 2.84783E+01 0.00000E+00
 -1       150 5.57449E+01 2.99060E+01 0.00000E+00
 -1       151 5.56597E+01 3.15016E+01 0.00000E+00
 -1       152 5.58891E+01 3.29012E+01 0.00000E+00
 -1       153 5.64246E+01 3.42820E+01 0.00000E+00
 -1       154 5.81812E+01 3.64655E+01 0.00000E+00
 -1       155 5.93714E+01 3.72613E+01 0.00000E+00
 -1       156 6.07239E+01 3.78056E+01 0.00000E+00
 -1       157 6.21733E+01 3.80588E+01 0.00000E+00
 -1       158 6.36833E+01 3.79976E+01 0.00000E+00
 -1       159 6.50330E+01 3.76555E+01 0.00000E+00
 -1       160 6.63034E+01 3.70438E+01 0.00000E+00
 -1       161 6.74208E+01 3.61942E+01 0.00000E+00
 -1       162 6.83408E+01 3.51463E+01 0.00000E+00
 -1       163 6.90775E+01 3.38397E+01 0.00000E+00
 -1       164 6.94984E+01 3.25079E+01 0.00000E+00
 -1       165 2.59800E+00 4.55750E+01 0.00000E+00
 -1       166 2.59800E+00 4.26250E+01 0.00000E+00
 -1       167 2.59800E+00 3.96750E+01 0.00000E+00
 -1       168 2.59800E+00 3.67250E+01 0.00000E+00
 -1       169 2.59800E+00 3.38250E+01 0.00000E+00
 -1       170 2.59800E+00 3.08750E+01 0.00000E+00
 -1       171 2.59800E+00 2.79250E+01 0.00000E+00
 -1       172 2.59800E+00 2.49750E+01 0.00000E+00
 -1       173 2.59800E+00 2.20250E+01 0.00000E+00
 -1       174 2.59800E+00 1.90750E+01 0.00000E+00
 -1       175 2.59800E+00 1.61750E+01 0.00000E+00
 -1       176 2.59800E+00 1.32250E+01 0.00000E+00
 -1       177 2.59800E+00 1.02750E+01 0.00000E+00
 -1       178 2.59800E+00 7.32500E+00 0.00000E+00
 -1       179 2.59800E+00 4.37500E+00 0.00000E+00
 -1       180 2.87400E+00 2.18750E+00 0.00000E+00
 -1       181 4.65000E+00 4.74020E+01 0.00000E+00
 -1       182 7.65000E+00 4.74020E+01 0.00000E+00
 -1       183 1.06500E+01 4.74020E+01 0.00000E+00
 -1       184 1.36500E+01 4.74020E+01 0.00000E+00
 -1       185 1.66500E+01 4.74020E+01 0.00000E+00
 -1       186 1.96500E+01 4.74020E+01 0.00000E+00
 -1       187 2.26500E+01 4.74020E+01 0.00000E+00
 -1       188 2.56500E+01 4.74020E+01 0.00000E+00
 -1       189 2.86500E+01 4.74020E+01 0.00000E+00
 -1       190 3.16500E+01 4.74020E+01 0.00000E+00
 -1       191 3.46500E+01 4.74020E+01 0.00000E+00
 -1       192 3.76500E+01 4.74020E+01 0.00000E+00
 -1       193 4.06500E+01 4.74020E+01 0.00000E+00
 -1       194 4.36500E+01 4.74020E+01 0.00000E+00
 -1       195 4.66500E+01 4.74020E+01 0.00000E+00
 -1       196 4.96500E+01 4.74020E+01 0.00000E+00
 -1       197 5.26500E+01 4.74020E+01 0.00000E+00
 -1       198 5.55000E+01 4.74020E+01 0.00000E+00
 -1       199 5.85000E+01 4.74020E+01 0.00000E+00
 -1       200 6.15000E+01 4.74020E+01 0.00000E+00
 -1       201 6.45000E+01 4.74020E+01 0.00000E+00
 -1       202 6.75000E+01 4.74020E+01 0.00000E+00
 -1       203 7.05000E+01 4.74020E+01 0.00000E+00
 -1       204 7.35000E+01 4.74020E+01 0.00000E+00
 -1       205 7.65000E+01 4.74020E+01 0.00000E+00
 -1       206 7.95000E+01 4.74020E+01 0.00000E+00
 -1       207 8.25000E+01 4.74020E+01 0.00000E+00
 -1       208 8.55000E+01 4.74020E+01 0.00000E+00
 -1       209 8.85000E+01 4.74020E+01 0.00000E+00
 -1       210 9.15000E+01 4.74020E+01 0.00000E+00
 -1       211 9.45000E+01 4.74020E+01 0.00000E+00
 -1       212 9.75000E+01 4.74020E+01 0.00000E+00
 -1       213 1.00500E+02 4.74020E+01 0.00000E+00
 -1       214 1.03500E+02 4.74020E+01 0.00000E+00
 -1       215 1.06500E+02 4.74020E+01 0.00000E+00
 -1       216 1.09500E+02 4.74020E+01 0.00000E+00
 -1       217 1.12500E+02 4.74020E+01 0.00000E+00
 -1       218 1.15500E+02 4.74020E+01 0.00000E+00
 -1       219 1.18500E+02 4.74020E+01 0.00000E+00
 -1       220 1.21500E+02 4.74020E+01 0.00000E+00
 -1       221 1.24500E+02 4.74020E+01 0.00000E+00
 -1       222 1.27500E+02 4.74020E+01 0.00000E+00
 -1       223 1.30500E+02 4.74020E+01 0.00000E+00
 -1       224 1.33500E+02 4.74020E+01 0.00000E+00
 -1       225 1.36500E+02 4.74020E+01 0.00000E+00
 -1       226 1.39500E+02 4.74020E+01 0.00000E+00
 -1       227 1.42500E+02 4.74020E+01 0.00000E+00
 -1       228 1.45500E+02 4.74020E+01 0.00000E+00
 -1       229 1.47750E+02 4.72510E+01 0.00000E+00
 -1       230 5.87400E+00 2.18750E+00 0.00000E+00
 -1       231 8.87400E+00 2.18750E+00 0.00000E+00
 -1       232 1.18740E+01 2.18750E+00 0.00000E+00
 -1       233 1.48740E+01 2.18750E+00 0.00000E+00
 -1       234 1.78740E+01 2.18750E+00 0.00000E+00
 -1       235 2.08740E+01 2.18750E+00 0.00000E+00
 -1       236 2.38740E+01 2.18750E+00 0.00000E+00
 -1       237 2.68740E+01 2.18750E+00 0.00000E+00
 -1       238 2.98740E+01 2.18750E+00 0.00000E+00
 -1       239 3.28740E+01 2.18750E+00 0.00000E+00
 -1       240 3.58740E+01 2.18750E+00 0.00000E+00
 -1       241 3.88740E+01 2.18750E+00 0.00000E+00
 -1       242 4.18740E+01 2.18750E+00 0.00000E+00
 -1       243 4.48740E+01 2.18750E+00 0.00000E+00
 -1       244 4.78740E+01 2.18750E+00 0.00000E+00
 -1       245 5.08740E+01 2.18750E+00 0.00000E+00
 -1       246 5.38740E+01 2.18750E+00 0.00000E+00
 -1       247 5.68740E+01 2.18750E+00 0.00000E+00
 -1       248 5.98740E+01 2.18750E+00 0.00000E+00
 -1       249 6.28740E+01 2.18750E+00 0.00000E+00
 -1       250 6.58740E+01 2.18750E+00 0.00000E+00
 -1       251 6.88740E+01 2.18750E+00 0.00000E+00
 -1       252 7.18740E+01 2.18750E+00 0.00000E+00
 -1       253 7.48740E+01 2.18750E+00 0.00000E+00
 -1       254 7.78740E+01 2.18750E+00 0.00000E+00
 -1       255 8.08740E+01 2.18750E+00 0.00000E+00
 -1       256 8.38740E+01 2.18750E+00 0.00000E+00
 -1       257 8.68740E+01 2.18750E+00 0.00000E+00
 -1       258 8.98740E+01 2.18750E+00 0.00000E+00
 -1       259 9.28740E+01 2.18750E+00 0.00000E+00
 -1       260 9.58740E+01 2.18750E+00 0.00000E+00
 -1       261 9.88740E+01 2.18750E+00 0.00000E+00
 -1       262 1.01874E+02 2.18750E+00 0.00000E+00
 -1       263 1.04874E+02 2.18750E+00 0.00000E+00
 -1       264 1.07874E+02 2.18750E+00 0.00000E+00
 -1       265 1.10874E+02 2.18750E+00 0.00000E+00
 -1       266 1.13874E+02 2.18750E+00 0.00000E+00
 -1       267 1.16874E+02 2.18750E+00 0.00000E+00
 -1       268 1.19874E+02 2.18750E+00 0.00000E+00
 -1       269 1.22874E+02 2.18750E+00 0.00000E+00
 -1       270 1.25874E+02 2.18750E+00 0.00000E+00
 -1       271 1.28874E+02 2.18750E+00 0.00000E+00
 -1       272 1.31874E+02 2.18750E+00 0.00000E+00
 -1       273 1.34874E+02 2.18750E+00 0.00000E+00
 -1       274 1.37874E+02 2.18750E+00 0.00000E+00
 -1       275 1.40874E+02 2.18750E+00 0.00000E+00
 -1       276 1.43874E+02 2.18750E+00 0.00000E+00
 -1       277 1.46874E+02 2.18750E+00 0.00000E+00
 -1       278 1.47402E+02 4.42500E+00 0.00000E+00
 -1       279 1.47402E+02 7.37500E+00 0.00000E+00
 -1       280 1.47402E+02 1.03250E+01 0.00000E+00
 -1       281 1.47402E+02 1.32750E+01 0.00000E+00
 -1       282 1.47402E+02 1.61750E+01 0.00000E+00
 -1       283 1.47402E+02 1.91250E+01 0.00000E+00
 -1       284 1.47402E+02 2.20750E+01 0.00000E+00
 -1       285 1.47402E+02 2.50250E+01 0.00000E+00
 -1       286 1.47402E+02 2.79750E+01 0.00000E+00
 -1       287 1.47402E+02 3.09250E+01 0.00000E+00
 -1       288 1.47402E+02 3.38250E+01 0.00000E+00
 -1       289 1.47402E+02 3.67750E+01 0.00000E+00
 -1       290 1.47402E+02 3.97250E+01 0.00000E+00
 -1       291 1.47402E+02 4.26750E+01 0.00000E+00
 -1       292 1.47576E+02 4.49630E+01 0.00000E+00
 -1       293 7.08570E+01 3.01999E+01 0.00000E+00
 -1       294 7.04919E+01 2.84978E+01 0.00000E+00
 -1       295 6.97050E+01 2.69541E+01 0.00000E+00
 -1       296 6.87485E+01 2.55108E+01 0.00000E+00
 -1       297 6.74295E+01 2.43466E+01 0.00000E+00
 -1       298 6.58756E+01 2.35645E+01 0.00000E+00
 -1       299 6.42553E+01 2.29766E+01 0.00000E+00
 -1       300 6.25485E+01 2.28990E+01 0.00000E+00
 -1       301 6.07208E+01 2.28826E+01 0.00000E+00
 -1       302 5.90742E+01 2.37222E+01 0.00000E+00
 -1       303 5.74883E+01 2.45252E+01 0.00000E+00
 -1       304 5.63394E+01 2.58738E+01 0.00000E+00
 -1       305 5.54071E+01 2.72770E+01 0.00000E+00
 -1       306 5.47783E+01 2.88642E+01 0.00000E+00
 -1       307 5.41570E+01 3.06213E+01 0.00000E+00
 -1       308 5.45780E+01 3.23975E+01 0.00000E+00
 -1       309 5.49484E+01 3.40602E+01 0.00000E+00
 -1       310 5.57885E+01 3.55286E+01 0.00000E+00
 -1       311 5.68196E+01 3.68105E+01 0.00000E+00
 -1       312 5.81024E+01 3.78712E+01 0.00000E+00
 -1       313 5.95950E+01 3.86582E+01 0.00000E+00
 -1       314 6.12255E+01 3.92090E+01 0.00000E+00
 -1       315 6.29841E+01 3.94071E+01 0.00000E+00
 -1       316 6.46560E+01 3.90018E+01 0.00000E+00
 -1       317 6.61942E+01 3.84420E+01 0.00000E+00
 -1       318 6.76466E+01 3.76508E+01 0.00000E+00
 -1       319 6.87919E+01 3.64702E+01 0.00000E+00
 -1       320 6.98382E+01 3.51296E+01 0.00000E+00
 -1       321 7.04440E+01 3.35391E+01 0.00000E+00
 -1       322 7.08619E+01 3.19247E+01 0.00000E+00
 -1       323 5.19600E+00 4.11500E+01 0.00000E+00
 -1       324 5.19600E+00 4.41000E+01 0.00000E+00
 -1       325 5.19600E+00 3.52750E+01 0.00000E+00
 -1       326 5.19600E+00 3.23250E+01 0.00000E+00
 -1       327 5.19600E+00 2.93750E+01 0.00000E+00
 -1       328 5.19600E+00 2.64250E+01 0.00000E+00
 -1       329 5.19600E+00 2.34750E+01 0.00000E+00
 -1       330 5.19600E+00 2.05250E+01 0.00000E+00
 -1       331 5.19600E+00 1.76250E+01 0.00000E+00
 -1       332 5.19600E+00 1.46750E+01 0.00000E+00
 -1       333 5.19600E+00 1.17250E+01 0.00000E+00
 -1       334 5.19600E+00 8.77500E+00 0.00000E+00
 -1       335 5.19600E+00 5.82500E+00 0.00000E+00
 -1       336 5.53500E+00 4.00625E+00 0.00000E+00
 -1       337 8.53500E+00 4.00625E+00 0.00000E+00
 -1       338 9.15000E+00 4.48040E+01 0.00000E+00
 -1       339 1.21500E+01 4.48040E+01 0.00000E+00
 -1       340 1.51500E+01 4.48040E+01 0.00000E+00
 -1       341 1.81500E+01 4.48040E+01 0.00000E+00
 -1       342 2.11500E+01 4.48040E+01 0.00000E+00
 -1       343 2.41500E+01 4.48040E+01 0.00000E+00
 -1       344 2.71500E+01 4.48040E+01 0.00000E+00
 -1       345 3.01500E+01 4.48040E+01 0.00000E+00
 -1       346 3.31500E+01 4.48040E+01 0.00000E+00
 -1       347 3.61500E+01 4.48040E+01 0.00000E+00
 -1       348 3.91500E+01 4.48040E+01 0.00000E+00
 -1       349 4.21500E+01 4.48040E+01 0.00000E+00
 -1       350 4.51500E+01 4.48040E+01 0.00000E+00
 -1       351 4.81500E+01 4.48040E+01 0.00000E+00
 -1       352 5.11500E+01 4.48040E+01 0.00000E+00
 -1       353 5.40000E+01 4.48040E+01 0.00000E+00
 -1       354 5.70000E+01 4.48040E+01 0.00000E+00
 -1       355 6.00000E+01 4.48040E+01 0.00000E+00
 -1       356 6.30000E+01 4.48040E+01 0.00000E+00
 -1       357 6.60000E+01 4.48040E+01 0.00000E+00
 -1       358 6.90000E+01 4.48040E+01 0.00000E+00
 -1       359 7.20000E+01 4.48040E+01 0.00000E+00
 -1       360 7.50000E+01 4.48040E+01 0.00000E+00
 -1       361 7.80000E+01 4.48040E+01 0.00000E+00
 -1       362 8.10000E+01 4.48040E+01 0.00000E+00
 -1       363 8.40000E+01 4.48040E+01 0.00000E+00
 -1       364 8.70000E+01 4.48040E+01 0.00000E+00
 -1       365 9.00000E+01 4.48040E+01 0.00000E+00
 -1       366 9.30000E+01 4.48040E+01 0.00000E+00
 -1       367 9.60000E+01 4.48040E+01 0.00000E+00
 -1       368 9.90000E+01 4.48040E+01 0.00000E+00
 -1       369 1.02000E+02 4.48040E+01 0.00000E+00
 -1       370 1.05000E+02 4.48040E+01 0.00000E+00
 -1       371 1.08000E+02 4.48040E+01 0.00000E+00
 -1       372 1.11000E+02 4.48040E+01 0.00000E+00
 -1       373 1.14000E+02 4.48040E+01 0.00000E+00
 -1       374 1.17000E+02 4.48040E+01 0.00000E+00
 -1       375 1.20000E+02 4.48040E+01 0.00000E+00
 -1       376 1.23000E+02 4.48040E+01 0.00000E+00
 -1       377 1.26000E+02 4.48040E+01 0.00000E+00
 -1       378 1.29000E+02 4.48040E+01 0.00000E+00
 -1       379 1.32000E+02 4.48040E+01 0.00000E+00
 -1       380 1.35000E+02 4.48040E+01 0.00000E+00
 -1       381 1.38000E+02 4.48040E+01 0.00000E+00
 -1       382 1.41000E+02 4.48040E+01 0.00000E+00
 -1       383 1.44000E+02 4.48040E+01 0.00000E+00
 -1       384 1.33740E+01 4.78550E+00 0.00000E+00
 -1       385 1.63740E+01 4.78550E+00 0.00000E+00
 -1       386 1.93740E+01 4.78550E+00 0.00000E+00
 -1       387 2.23740E+01 4.78550E+00 0.00000E+00
 -1       388 2.53740E+01 4.78550E+00 0.00000E+00
 -1       389 2.83740E+01 4.78550E+00 0.00000E+00
 -1       390 3.13740E+01 4.78550E+00 0.00000E+00
 -1       391 3.43740E+01 4.78550E+00 0.00000E+00
 -1       392 3.73740E+01 4.78550E+00 0.00000E+00
 -1       393 4.03740E+01 4.78550E+00 0.00000E+00
 -1       394 4.33740E+01 4.78550E+00 0.00000E+00
 -1       395 4.63740E+01 4.78550E+00 0.00000E+00
 -1       396 4.93740E+01 4.78550E+00 0.00000E+00
 -1       397 5.23740E+01 4.78550E+00 0.00000E+00
 -1       398 5.53740E+01 4.78550E+00 0.00000E+00
 -1       399 5.83740E+01 4.78550E+00 0.00000E+00
 -1       400 6.13740E+01 4.78550E+00 0.00000E+00
 -1       401 6.43740E+01 4.78550E+00 0.00000E+00
 -1       402 6.73740E+01 4.78550E+00 0.00000E+00
 -1       403 7.03740E+01 4.78550E+00 0.00000E+00
 -1       404 7.33740E+01 4.78550E+00 0.00000E+00
 -1       405 7.63740E+01 4.78550E+00 0.00000E+00
 -1       406 7.93740E+01 4.78550E+00 0.00000E+00
 -1       407 8.23740E+01 4.78550E+00 0.00000E+00
 -1       408 8.53740E+01 4.78550E+00 0.00000E+00
 -1       409 8.83740E+01 4.78550E+00 0.00000E+00
 -1       410 9.13740E+01 4.78550E+00 0.00000E+00
 -1       411 9.43740E+01 4.78550E+00 0.00000E+00
 -1       412 9.73740E+01 4.78550E+00 0.00000E+00
 -1       413 1.00374E+02 4.78550E+00 0.00000E+00
 -1       414 1.03374E+02 4.78550E+00 0.00000E+00
 -1       415 1.06374E+02 4.78550E+00 0.00000E+00
 -1       416 1.09374E+02 4.78550E+00 0.00000E+00
 -1       417 1.12374E+02 4.78550E+00 0.00000E+00
 -1       418 1.15374E+02 4.78550E+00 0.00000E+00
 -1       419 1.18374E+02 4.78550E+00 0.00000E+00
 -1       420 1.21374E+02 4.78550E+00 0.00000E+00
 -1       421 1.24374E+02 4.78550E+00 0.00000E+00
 -1       422 1.27374E+02 4.78550E+00 0.00000E+00
 -1       423 1.30374E+02 4.78550E+00 0.00000E+00
 -1       424 1.33374E+02 4.78550E+00 0.00000E+00
 -1       425 1.36374E+02 4.78550E+00 0.00000E+00
 -1       426 1.39374E+02 4.78550E+00 0.00000E+00
 -1       427 1.42374E+02 4.78550E+00 0.00000E+00
 -1       428 1.44888E+02 4.60525E+00 0.00000E+00
 -1       429 1.44804E+02 1.18000E+01 0.00000E+00
 -1       430 1.44804E+02 8.85000E+00 0.00000E+00
 -1       431 1.44804E+02 1.47000E+01 0.00000E+00
 -1       432 1.44804E+02 1.76500E+01 0.00000E+00
 -1       433 1.44804E+02 2.06000E+01 0.00000E+00
 -1       434 1.44804E+02 2.35500E+01 0.00000E+00
 -1       435 1.44804E+02 2.65000E+01 0.00000E+00
 -1       436 1.44804E+02 2.94500E+01 0.00000E+00
 -1       437 1.44804E+02 3.23500E+01 0.00000E+00
 -1       438 1.44804E+02 3.53000E+01 0.00000E+00
 -1       439 1.44804E+02 3.82500E+01 0.00000E+00
 -1       440 1.44804E+02 4.12000E+01 0.00000E+00
 -1       441 1.09545E+01 4.39587E+00 0.00000E+00
 -1       442 7.14025E+01 2.70612E+01 0.00000E+00
 -1       443 6.91685E+01 2.37057E+01 0.00000E+00
 -1       444 7.25745E+01 3.10575E+01 0.00000E+00
 -1       445 7.03770E+01 2.54701E+01 0.00000E+00
 -1       446 5.19600E+00 3.82125E+01 0.00000E+00
 -1       447 6.73860E+01 2.24984E+01 0.00000E+00
 -1       448 6.57657E+01 2.19105E+01 0.00000E+00
 -1       449 6.34645E+01 2.15593E+01 0.00000E+00
 -1       450 6.16471E+01 2.15109E+01 0.00000E+00
 -1       451 5.92325E+01 2.19984E+01 0.00000E+00
 -1       452 5.76467E+01 2.28013E+01 0.00000E+00
 -1       453 5.57359E+01 2.41959E+01 0.00000E+00
 -1       454 5.47239E+01 2.58117E+01 0.00000E+00
 -1       455 5.37318E+01 2.75315E+01 0.00000E+00
 -1       456 5.31105E+01 2.92885E+01 0.00000E+00
 -1       457 5.31062E+01 3.18083E+01 0.00000E+00
 -1       458 5.34162E+01 3.35289E+01 0.00000E+00
 -1       459 5.40252E+01 3.55630E+01 0.00000E+00
 -1       460 5.52940E+01 3.69819E+01 0.00000E+00
 -1       461 5.66350E+01 3.83398E+01 0.00000E+00
 -1       462 5.82442E+01 3.94113E+01 0.00000E+00
 -1       463 5.99954E+01 4.01616E+01 0.00000E+00
 -1       464 6.19223E+01 4.09291E+01 0.00000E+00
 -1       465 6.41846E+01 4.07084E+01 0.00000E+00
 -1       466 6.58971E+01 4.00187E+01 0.00000E+00
 -1       467 6.75806E+01 3.92582E+01 0.00000E+00
 -1       468 6.92097E+01 3.80213E+01 0.00000E+00
 -1       469 7.04029E+01 3.66490E+01 0.00000E+00
 -1       470 7.17439E+01 3.49448E+01 0.00000E+00
 -1       471 7.19078E+01 3.30567E+01 0.00000E+00
 -1       472 7.19418E+01 2.90770E+01 0.00000E+00
 -1       473 5.20598E+01 3.04756E+01 0.00000E+00
 -1       474 6.01588E+01 2.06267E+01 0.00000E+00
 -1       475 7.79400E+00 3.08500E+01 0.00000E+00
 -1       476 7.79400E+00 3.38000E+01 0.00000E+00
 -1       477 7.79400E+00 2.49500E+01 0.00000E+00
 -1       478 7.79400E+00 2.20000E+01 0.00000E+00
 -1       479 7.79400E+00 1.91000E+01 0.00000E+00
 -1       480 7.79400E+00 1.61500E+01 0.00000E+00
 -1       481 7.79400E+00 1.32000E+01 0.00000E+00
 -1       482 7.79400E+00 1.02500E+01 0.00000E+00
 -1       483 7.79400E+00 7.30000E+00 0.00000E+00
 -1       484 8.16450E+00 5.65312E+00 0.00000E+00
 -1       485 1.06500E+01 4.22060E+01 0.00000E+00
 -1       486 7.24722E+01 2.52457E+01 0.00000E+00
 -1       487 7.12637E+01 2.34812E+01 0.00000E+00
 -1       488 1.36500E+01 4.22060E+01 0.00000E+00
 -1       489 1.66500E+01 4.22060E+01 0.00000E+00
 -1       490 1.96500E+01 4.22060E+01 0.00000E+00
 -1       491 2.26500E+01 4.22060E+01 0.00000E+00
 -1       492 2.56500E+01 4.22060E+01 0.00000E+00
 -1       493 2.86500E+01 4.22060E+01 0.00000E+00
 -1       494 3.16500E+01 4.22060E+01 0.00000E+00
 -1       495 3.46500E+01 4.22060E+01 0.00000E+00
 -1       496 3.76500E+01 4.22060E+01 0.00000E+00
 -1       497 4.06500E+01 4.22060E+01 0.00000E+00
 -1       498 4.36500E+01 4.22060E+01 0.00000E+00
 -1       499 4.66500E+01 4.22060E+01 0.00000E+00
 -1       500 4.96500E+01 4.22060E+01 0.00000E+00
 -1       501 5.25000E+01 4.22060E+01 0.00000E+00
 -1       502 5.55000E+01 4.22060E+01 0.00000E+00
 -1       503 5.85000E+01 4.29213E+01 0.00000E+00
 -1       504 6.15000E+01 4.27537E+01 0.00000E+00
 -1       505 6.45000E+01 4.25862E+01 0.00000E+00
 -1       506 6.75000E+01 4.25862E+01 0.00000E+00
 -1       507 7.05000E+01 4.25862E+01 0.00000E+00
 -1       508 7.35000E+01 4.25862E+01 0.00000E+00
 -1       509 7.65000E+01 4.25862E+01 0.00000E+00
 -1       510 7.95000E+01 4.25862E+01 0.00000E+00
 -1       511 8.25000E+01 4.25862E+01 0.00000E+00
 -1       512 8.55000E+01 4.25862E+01 0.00000E+00
 -1       513 8.85000E+01 4.25862E+01 0.00000E+00
 -1       514 9.15000E+01 4.25862E+01 0.00000E+00
 -1       515 9.45000E+01 4.25862E+01 0.00000E+00
 -1       516 9.75000E+01 4.25862E+01 0.00000E+00
 -1       517 1.00500E+02 4.25862E+01 0.00000E+00
 -1       518 1.03500E+02 4.25862E+01 0.00000E+00
 -1       519 1.06500E+02 4.25862E+01 0.00000E+00
 -1       520 1.09500E+02 4.25862E+01 0.00000E+00
 -1       521 1.12500E+02 4.25862E+01 0.00000E+00
 -1       522 1.15500E+02 4.25862E+01 0.00000E+00
 -1       523 1.18500E+02 4.25862E+01 0.00000E+00
 -1       524 1.21500E+02 4.25862E+01 0.00000E+00
 -1       525 1.24500E+02 4.25862E+01 0.00000E+00
 -1       526 1.27500E+02 4.25862E+01 0.00000E+00
 -1       527 1.30500E+02 4.25862E+01 0.00000E+00
 -1       528 1.33500E+02 4.25862E+01 0.00000E+00
 -1       529 1.36500E+02 4.25862E+01 0.00000E+00
 -1       530 1.39500E+02 4.25862E+01 0.00000E+00
 -1       531 1.42152E+02 4.18931E+01 0.00000E+00
 -1       532 2.08740E+01 7.38350E+00 0.00000E+00
 -1       533 1.78740E+01 7.38350E+00 0.00000E+00
 -1       534 1.48740E+01 7.38350E+00 0.00000E+00
 -1       535 2.38740E+01 7.38350E+00 0.00000E+00
 -1       536 2.68740E+01 7.38350E+00 0.00000E+00
 -1       537 2.98740E+01 7.38350E+00 0.00000E+00
 -1       538 3.28740E+01 7.38350E+00 0.00000E+00
 -1       539 3.58740E+01 7.38350E+00 0.00000E+00
 -1       540 3.88740E+01 7.38350E+00 0.00000E+00
 -1       541 4.18740E+01 7.38350E+00 0.00000E+00
 -1       542 4.48740E+01 7.38350E+00 0.00000E+00
 -1       543 4.78740E+01 7.38350E+00 0.00000E+00
 -1       544 5.08740E+01 7.38350E+00 0.00000E+00
 -1       545 5.38740E+01 7.38350E+00 0.00000E+00
 -1       546 5.68740E+01 7.38350E+00 0.00000E+00
 -1       547 5.98740E+01 7.38350E+00 0.00000E+00
 -1       548 6.28740E+01 7.38350E+00 0.00000E+00
 -1       549 6.58740E+01 7.38350E+00 0.00000E+00
 -1       550 6.88740E+01 7.38350E+00 0.00000E+00
 -1       551 7.18740E+01 7.38350E+00 0.00000E+00
 -1       552 7.48740E+01 7.38350E+00 0.00000E+00
 -1       553 7.78740E+01 7.38350E+00 0.00000E+00
 -1       554 8.08740E+01 7.38350E+00 0.00000E+00
 -1       555 8.38740E+01 7.38350E+00 0.00000E+00
 -1       556 8.68740E+01 7.38350E+00 0.00000E+00
 -1       557 8.98740E+01 7.38350E+00 0.00000E+00
 -1       558 9.28740E+01 7.38350E+00 0.00000E+00
 -1       559 9.58740E+01 7.38350E+00 0.00000E+00
 -1       560 9.88740E+01 7.38350E+00 0.00000E+00
 -1       561 1.01874E+02 7.38350E+00 0.00000E+00
 -1       562 1.04874E+02 7.38350E+00 0.00000E+00
 -1       563 1.07874E+02 7.38350E+00 0.00000E+00
 -1       564 1.10874E+02 7.38350E+00 0.00000E+00
 -1       565 1.13874E+02 7.38350E+00 0.00000E+00
 -1       566 1.16874E+02 7.38350E+00 0.00000E+00
 -1       567 1.19874E+02 7.38350E+00 0.00000E+00
 -1       568 1.22874E+02 7.38350E+00 0.00000E+00
 -1       569 1.25874E+02 7.38350E+00 0.00000E+00
 -1       570 1.28874E+02 7.38350E+00 0.00000E+00
 -1       571 1.31874E+02 7.38350E+00 0.00000E+00
 -1       572 1.34874E+02 7.38350E+00 0.00000E+00
 -1       573 1.37874E+02 7.38350E+00 0.00000E+00
 -1       574 1.40874E+02 7.38350E+00 0.00000E+00
 -1       575 1.42206E+02 1.61750E+01 0.00000E+00
 -1       576 1.42206E+02 1.32750E+01 0.00000E+00
 -1       577 1.42206E+02 1.03250E+01 0.00000E+00
 -1       578 7.38919E+01 2.95453E+01 0.00000E+00
 -1       579 1.42206E+02 1.91250E+01 0.00000E+00
 -1       580 1.42206E+02 2.20750E+01 0.00000E+00
 -1       581 1.42206E+02 2.50250E+01 0.00000E+00
 -1       582 1.42206E+02 2.79750E+01 0.00000E+00
 -1       583 1.42206E+02 3.08750E+01 0.00000E+00