    1C
    1UUSER                                                              
    1UDATE              27.october.2022                                 
    1UTIME              00:51:56                                        
    1UHOST                                                              
    1UPGM               CalculiX                                        
    1UVERSION           Version 2.17                             
    1UCOMPILETIME       Thu Jul 23 21:43:50 CEST 2020                    
    1UDIR                                                               
    1UDBN                                                               
    1UMAT    1SOLIDMATERIAL                                             
    2C                          4237                                     1
 -1         1 1.11818E+02 2.18949E+01 0.00000E+00
 -1         2 1.16966E+02 1.51444E+01 0.00000E+00
 -1         3 1.50000E+02 0.00000E+00 0.00000E+00
 -1         4 1.50000E+02 5.00000E+01 0.00000E+00
 -1         5 0.00000E+00 0.00000E+00 0.00000E+00
 -1         6 0.00000E+00 5.00000E+01 0.00000E+00
 -1         7 0.00000E+00 4.70500E+01 0.00000E+00
 -1         8 0.00000E+00 4.41000E+01 0.00000E+00
 -1         9 0.00000E+00 4.11500E+01 0.00000E+00
 -1        10 0.00000E+00 3.82000E+01 0.00000E+00
 -1        11 0.00000E+00 3.52500E+01 0.00000E+00
 -1        12 0.00000E+00 3.23500E+01 0.00000E+00
 -1        13 0.00000E+00 2.94000E+01 0.00000E+00
 -1        14 0.00000E+00 2.64500E+01 0.00000E+00
 -1        15 0.00000E+00 2.35000E+01 0.00000E+00
 -1        16 0.00000E+00 2.05500E+01 0.00000E+00
 -1        17 0.00000E+00 1.76000E+01 0.00000E+00
 -1        18 0.00000E+00 1.47000E+01 0.00000E+00
 -1        19 0.00000E+00 1.17500E+01 0.00000E+00
 -1        20 0.00000E+00 8.80000E+00 0.00000E+00
 -1        21 0.00000E+00 5.85000E+00 0.00000E+00
 -1        22 0.00000E+00 2.90000E+00 0.00000E+00
 -1        23 3.15000E+00 5.00000E+01 0.00000E+00
 -1        24 6.15000E+00 5.00000E+01 0.00000E+00
 -1        25 9.15000E+00 5.00000E+01 0.00000E+00
 -1        26 1.21500E+01 5.00000E+01 0.00000E+00
 -1        27 1.51500E+01 5.00000E+01 0.00000E+00
 -1        28 1.81500E+01 5.00000E+01 0.00000E+00
 -1        29 2.11500E+01 5.00000E+01 0.00000E+00
 -1        30 2.41500E+01 5.00000E+01 0.00000E+00
 -1        31 2.71500E+01 5.00000E+01 0.00000E+00
 -1        32 3.01500E+01 5.00000E+01 0.00000E+00
 -1        33 3.31500E+01 5.00000E+01 0.00000E+00
 -1        34 3.61500E+01 5.00000E+01 0.00000E+00
 -1        35 3.91500E+01 5.00000E+01 0.00000E+00
 -1        36 4.21500E+01 5.00000E+01 0.00000E+00
 -1        37 4.51500E+01 5.00000E+01 0.00000E+00
 -1        38 4.81500E+01 5.00000E+01 0.00000E+00
 -1        39 5.11500E+01 5.00000E+01 0.00000E+00
 -1        40 5.41500E+01 5.00000E+01 0.00000E+00
 -1        41 5.71500E+01 5.00000E+01 0.00000E+00
 -1        42 6.01500E+01 5.00000E+01 0.00000E+00
 -1        43 6.31500E+01 5.00000E+01 0.00000E+00
 -1        44 6.61500E+01 5.00000E+01 0.00000E+00
 -1        45 6.91500E+01 5.00000E+01 0.00000E+00
 -1        46 7.21500E+01 5.00000E+01 0.00000E+00
 -1        47 7.51500E+01 5.00000E+01 0.00000E+00
 -1        48 7.81500E+01 5.00000E+01 0.00000E+00
 -1        49 8.11500E+01 5.00000E+01 0.00000E+00
 -1        50 8.41500E+01 5.00000E+01 0.00000E+00
 -1        51 8.71500E+01 5.00000E+01 0.00000E+00
 -1        52 9.01500E+01 5.00000E+01 0.00000E+00
 -1        53 9.31500E+01 5.00000E+01 0.00000E+00
 -1        54 9.61500E+01 5.00000E+01 0.00000E+00
 -1        55 9.91500E+01 5.00000E+01 0.00000E+00
 -1        56 1.02150E+02 5.00000E+01 0.00000E+00
 -1        57 1.05150E+02 5.00000E+01 0.00000E+00
 -1        58 1.08150E+02 5.00000E+01 0.00000E+00
 -1        59 1.11150E+02 5.00000E+01 0.00000E+00
 -1        60 1.14150E+02 5.00000E+01 0.00000E+00
 -1        61 1.17150E+02 5.00000E+01 0.00000E+00
 -1        62 1.20150E+02 5.00000E+01 0.00000E+00
 -1        63 1.23150E+02 5.00000E+01 0.00000E+00
 -1        64 1.26150E+02 5.00000E+01 0.00000E+00
 -1        65 1.29150E+02 5.00000E+01 0.00000E+00
 -1        66 1.32150E+02 5.00000E+01 0.00000E+00
 -1        67 1.35150E+02 5.00000E+01 0.00000E+00
 -1        68 1.38150E+02 5.00000E+01 0.00000E+00
 -1        69 1.41150E+02 5.00000E+01 0.00000E+00
 -1        70 1.44150E+02 5.00000E+01 0.00000E+00
 -1        71 1.47150E+02 5.00000E+01 0.00000E+00
 -1        72 3.15000E+00 0.00000E+00 0.00000E+00
 -1        73 6.15000E+00 0.00000E+00 0.00000E+00
 -1        74 9.15000E+00 0.00000E+00 0.00000E+00
 -1        75 1.21500E+01 0.00000E+00 0.00000E+00
 -1        76 1.51500E+01 0.00000E+00 0.00000E+00
 -1        77 1.81500E+01 0.00000E+00 0.00000E+00
 -1        78 2.11500E+01 0.00000E+00 0.00000E+00
 -1        79 2.41500E+01 0.00000E+00 0.00000E+00
 -1        80 2.73000E+01 0.00000E+00 0.00000E+00
 -1        81 3.03000E+01 0.00000E+00 0.00000E+00
 -1        82 3.33000E+01 0.00000E+00 0.00000E+00
 -1        83 3.63000E+01 0.00000E+00 0.00000E+00
 -1        84 3.93000E+01 0.00000E+00 0.00000E+00
 -1        85 4.23000E+01 0.00000E+00 0.00000E+00
 -1        86 4.53000E+01 0.00000E+00 0.00000E+00
 -1        87 4.83000E+01 0.00000E+00 0.00000E+00
 -1        88 5.14500E+01 0.00000E+00 0.00000E+00
 -1        89 5.44500E+01 0.00000E+00 0.00000E+00
 -1        90 5.74500E+01 0.00000E+00 0.00000E+00
 -1        91 6.04500E+01 0.00000E+00 0.00000E+00
 -1        92 6.34500E+01 0.00000E+00 0.00000E+00
 -1        93 6.64500E+01 0.00000E+00 0.00000E+00
 -1        94 6.94500E+01 0.00000E+00 0.00000E+00
 -1        95 7.24500E+01 0.00000E+00 0.00000E+00
 -1        96 7.56000E+01 0.00000E+00 0.00000E+00
 -1        97 7.86000E+01 0.00000E+00 0.00000E+00
 -1        98 8.16000E+01 0.00000E+00 0.00000E+00
 -1        99 8.46000E+01 0.00000E+00 0.00000E+00
 -1       100 8.76000E+01 0.00000E+00 0.00000E+00
 -1       101 9.06000E+01 0.00000E+00 0.00000E+00
 -1       102 9.36000E+01 0.00000E+00 0.00000E+00
 -1       103 9.66000E+01 0.00000E+00 0.00000E+00
 -1       104 9.97500E+01 0.00000E+00 0.00000E+00
 -1       105 1.02600E+02 0.00000E+00 0.00000E+00
 -1       106 1.05600E+02 0.00000E+00 0.00000E+00
 -1       107 1.08600E+02 0.00000E+00 0.00000E+00
 -1       108 1.11600E+02 0.00000E+00 0.00000E+00
 -1       109 1.14450E+02 0.00000E+00 0.00000E+00
 -1       110 1.17150E+02 0.00000E+00 0.00000E+00
 -1       111 1.19850E+02 0.00000E+00 0.00000E+00
 -1       112 1.22850E+02 0.00000E+00 0.00000E+00
 -1       113 1.26000E+02 0.00000E+00 0.00000E+00
 -1       114 1.29000E+02 0.00000E+00 0.00000E+00
 -1       115 1.32000E+02 0.00000E+00 0.00000E+00
 -1       116 1.35000E+02 0.00000E+00 0.00000E+00
 -1       117 1.38000E+02 0.00000E+00 0.00000E+00
 -1       118 1.41000E+02 0.00000E+00 0.00000E+00
 -1       119 1.44000E+02 0.00000E+00 0.00000E+00
 -1       120 1.47000E+02 0.00000E+00 0.00000E+00
 -1       121 1.50000E+02 2.95000E+00 0.00000E+00
 -1       122 1.50000E+02 5.90000E+00 0.00000E+00
 -1       123 1.50000E+02 8.85000E+00 0.00000E+00
 -1       124 1.50000E+02 1.18000E+01 0.00000E+00
 -1       125 1.50000E+02 1.47500E+01 0.00000E+00
 -1       126 1.50000E+02 1.76500E+01 0.00000E+00
 -1       127 1.50000E+02 2.06000E+01 0.00000E+00
 -1       128 1.50000E+02 2.35500E+01 0.00000E+00
 -1       129 1.50000E+02 2.65000E+01 0.00000E+00
 -1       130 1.50000E+02 2.94500E+01 0.00000E+00
 -1       131 1.50000E+02 3.24000E+01 0.00000E+00
 -1       132 1.50000E+02 3.53000E+01 0.00000E+00
 -1       133 1.50000E+02 3.82500E+01 0.00000E+00
 -1       134 1.50000E+02 4.12000E+01 0.00000E+00
 -1       135 1.50000E+02 4.41500E+01 0.00000E+00
 -1       136 1.50000E+02 4.71000E+01 0.00000E+00
 -1       137 1.16813E+02 1.36918E+01 0.00000E+00
 -1       138 1.16350E+02 1.22731E+01 0.00000E+00
 -1       139 1.15614E+02 1.10100E+01 0.00000E+00
 -1       140 1.14510E+02 9.81996E+00 0.00000E+00
 -1       141 1.13309E+02 8.99415E+00 0.00000E+00
 -1       142 1.11820E+02 8.39441E+00 0.00000E+00
 -1       143 1.10355E+02 8.15523E+00 0.00000E+00
 -1       144 1.08815E+02 8.23966E+00 0.00000E+00
 -1       145 1.07268E+02 8.68519E+00 0.00000E+00
 -1       146 1.06007E+02 9.37117E+00 0.00000E+00
 -1       147 1.04931E+02 1.02808E+01 0.00000E+00
 -1       148 1.03986E+02 1.15052E+01 0.00000E+00
 -1       149 1.03311E+02 1.29742E+01 0.00000E+00
 -1       150 1.03007E+02 1.43848E+01 0.00000E+00
 -1       151 1.03017E+02 1.59900E+01 0.00000E+00
 -1       152 1.03349E+02 1.74275E+01 0.00000E+00
 -1       153 1.04001E+02 1.88082E+01 0.00000E+00
 -1       154 1.04929E+02 2.00055E+01 0.00000E+00
 -1       155 1.06065E+02 2.09567E+01 0.00000E+00
 -1       156 1.07373E+02 2.16466E+01 0.00000E+00
 -1       157 1.08770E+02 2.20416E+01 0.00000E+00
 -1       158 1.10394E+02 2.21313E+01 0.00000E+00
 -1       159 1.13224E+02 2.13401E+01 0.00000E+00
 -1       160 1.14445E+02 2.05233E+01 0.00000E+00
 -1       161 1.15487E+02 1.94471E+01 0.00000E+00
 -1       162 1.16293E+02 1.81393E+01 0.00000E+00
 -1       163 1.16807E+02 1.66251E+01 0.00000E+00
 -1       164 2.59800E+00 4.55750E+01 0.00000E+00
 -1       165 2.59800E+00 4.26250E+01 0.00000E+00
 -1       166 2.59800E+00 3.96750E+01 0.00000E+00
 -1       167 2.59800E+00 3.67250E+01 0.00000E+00
 -1       168 2.59800E+00 3.38250E+01 0.00000E+00
 -1       169 2.59800E+00 3.08750E+01 0.00000E+00
 -1       170 2.59800E+00 2.79250E+01 0.00000E+00
 -1       171 2.59800E+00 2.49750E+01 0.00000E+00
 -1       172 2.59800E+00 2.20250E+01 0.00000E+00
 -1       173 2.59800E+00 1.90750E+01 0.00000E+00
 -1       174 2.59800E+00 1.61750E+01 0.00000E+00
 -1       175 2.59800E+00 1.32250E+01 0.00000E+00
 -1       176 2.59800E+00 1.02750E+01 0.00000E+00
 -1       177 2.59800E+00 7.32500E+00 0.00000E+00
 -1       178 2.59800E+00 4.37500E+00 0.00000E+00
 -1       179 2.87400E+00 2.18750E+00 0.00000E+00
 -1       180 4.65000E+00 4.74020E+01 0.00000E+00
 -1       181 7.65000E+00 4.74020E+01 0.00000E+00
 -1       182 1.06500E+01 4.74020E+01 0.00000E+00
 -1       183 1.36500E+01 4.74020E+01 0.00000E+00
 -1       184 1.66500E+01 4.74020E+01 0.00000E+00
 -1       185 1.96500E+01 4.74020E+01 0.00000E+00
 -1       186 2.26500E+01 4.74020E+01 0.00000E+00
 -1       187 2.56500E+01 4.74020E+01 0.00000E+00
 -1       188 2.86500E+01 4.74020E+01 0.00000E+00
 -1       189 3.16500E+01 4.74020E+01 0.00000E+00
 -1       190 3.46500E+01 4.74020E+01 0.00000E+00
 -1       191 3.76500E+01 4.74020E+01 0.00000E+00
 -1       192 4.06500E+01 4.74020E+01 0.00000E+00
 -1       193 4.36500E+01 4.74020E+01 0.00000E+00
 -1       194 4.66500E+01 4.74020E+01 0.00000E+00
 -1       195 4.96500E+01 4.74020E+01 0.00000E+00
 -1       196 5.26500E+01 4.74020E+01 0.00000E+00
 -1       197 5.56500E+01 4.74020E+01 0.00000E+00
 -1       198 5.86500E+01 4.74020E+01 0.00000E+00
 -1       199 6.16500E+01 4.74020E+01 0.00000E+00
 -1       200 6.46500E+01 4.74020E+01 0.00000E+00
 -1       201 6.76500E+01 4.74020E+01 0.00000E+00
 -1       202 7.06500E+01 4.74020E+01 0.00000E+00
 -1       203 7.36500E+01 4.74020E+01 0.00000E+00
 -1       204 7.66500E+01 4.74020E+01 0.00000E+00
 -1       205 7.96500E+01 4.74020E+01 0.00000E+00
 -1       206 8.26500E+01 4.74020E+01 0.00000E+00
 -1       207 8.56500E+01 4.74020E+01 0.00000E+00
 -1       208 8.86500E+01 4.74020E+01 0.00000E+00
 -1       209 9.16500E+01 4.74020E+01 0.00000E+00
 -1       210 9.46500E+01 4.74020E+01 0.00000E+00
 -1       211 9.76500E+01 4.74020E+01 0.00000E+00
 -1       212 1.00650E+02 4.74020E+01 0.00000E+00
 -1       213 1.03650E+02 4.74020E+01 0.00000E+00
 -1       214 1.06650E+02 4.74020E+01 0.00000E+00
 -1       215 1.09650E+02 4.74020E+01 0.00000E+00
 -1       216 1.12650E+02 4.74020E+01 0.00000E+00
 -1       217 1.15650E+02 4.74020E+01 0.00000E+00
 -1       218 1.18650E+02 4.74020E+01 0.00000E+00
 -1       219 1.21650E+02 4.74020E+01 0.00000E+00
 -1       220 1.24650E+02 4.74020E+01 0.00000E+00
 -1       221 1.27650E+02 4.74020E+01 0.00000E+00
 -1       222 1.30650E+02 4.74020E+01 0.00000E+00
 -1       223 1.33650E+02 4.74020E+01 0.00000E+00
 -1       224 1.36650E+02 4.74020E+01 0.00000E+00
 -1       225 1.39650E+02 4.74020E+01 0.00000E+00
 -1       226 1.42650E+02 4.74020E+01 0.00000E+00
 -1       227 1.45650E+02 4.74020E+01 0.00000E+00
 -1       228 5.87400E+00 2.18750E+00 0.00000E+00
 -1       229 8.87400E+00 2.18750E+00 0.00000E+00
 -1       230 1.18740E+01 2.18750E+00 0.00000E+00
 -1       231 1.48740E+01 2.18750E+00 0.00000E+00
 -1       232 1.78740E+01 2.18750E+00 0.00000E+00
 -1       233 2.08740E+01 2.18750E+00 0.00000E+00
 -1       234 2.38740E+01 2.18750E+00 0.00000E+00
 -1       235 2.70240E+01 2.18750E+00 0.00000E+00
 -1       236 3.00240E+01 2.18750E+00 0.00000E+00
 -1       237 3.30240E+01 2.18750E+00 0.00000E+00
 -1       238 3.60240E+01 2.18750E+00 0.00000E+00
 -1       239 3.90240E+01 2.18750E+00 0.00000E+00
 -1       240 4.20240E+01 2.18750E+00 0.00000E+00
 -1       241 4.50240E+01 2.18750E+00 0.00000E+00
 -1       242 4.80240E+01 2.18750E+00 0.00000E+00
 -1       243 5.11740E+01 2.18750E+00 0.00000E+00
 -1       244 5.41740E+01 2.18750E+00 0.00000E+00
 -1       245 5.71740E+01 2.18750E+00 0.00000E+00
 -1       246 6.01740E+01 2.18750E+00 0.00000E+00
 -1       247 6.31740E+01 2.18750E+00 0.00000E+00
 -1       248 6.61740E+01 2.18750E+00 0.00000E+00
 -1       249 6.91740E+01 2.18750E+00 0.00000E+00
 -1       250 7.21740E+01 2.18750E+00 0.00000E+00
 -1       251 7.53240E+01 2.18750E+00 0.00000E+00
 -1       252 7.83240E+01 2.18750E+00 0.00000E+00
 -1       253 8.13240E+01 2.18750E+00 0.00000E+00
 -1       254 8.43240E+01 2.18750E+00 0.00000E+00
 -1       255 8.73240E+01 2.18750E+00 0.00000E+00
 -1       256 9.03240E+01 2.18750E+00 0.00000E+00
 -1       257 9.33240E+01 2.18750E+00 0.00000E+00
 -1       258 9.63240E+01 2.18750E+00 0.00000E+00
 -1       259 9.94740E+01 2.18750E+00 0.00000E+00
 -1       260 1.02324E+02 2.18750E+00 0.00000E+00
 -1       261 1.05324E+02 2.18750E+00 0.00000E+00
 -1       262 1.08324E+02 2.18750E+00 0.00000E+00
 -1       263 1.11324E+02 2.18750E+00 0.00000E+00
 -1       264 1.14174E+02 2.18750E+00 0.00000E+00
 -1       265 1.16874E+02 2.18750E+00 0.00000E+00
 -1       266 1.19574E+02 2.18750E+00 0.00000E+00
 -1       267 1.22574E+02 2.18750E+00 0.00000E+00
 -1       268 1.25724E+02 2.18750E+00 0.00000E+00
 -1       269 1.28724E+02 2.18750E+00 0.00000E+00
 -1       270 1.31724E+02 2.18750E+00 0.00000E+00
 -1       271 1.34724E+02 2.18750E+00 0.00000E+00
 -1       272 1.37724E+02 2.18750E+00 0.00000E+00
 -1       273 1.40724E+02 2.18750E+00 0.00000E+00
 -1       274 1.43724E+02 2.18750E+00 0.00000E+00
 -1       275 1.46724E+02 2.18750E+00 0.00000E+00
 -1       276 1.47402E+02 4.42500E+00 0.00000E+00
 -1       277 1.47402E+02 7.37500E+00 0.00000E+00
 -1       278 1.47402E+02 1.03250E+01 0.00000E+00
 -1       279 1.47402E+02 1.32750E+01 0.00000E+00
 -1       280 1.47402E+02 1.61750E+01 0.00000E+00
 -1       281 1.47402E+02 1.91250E+01 0.00000E+00
 -1       282 1.47402E+02 2.20750E+01 0.00000E+00
 -1       283 1.47402E+02 2.50250E+01 0.00000E+00
 -1       284 1.47402E+02 2.79750E+01 0.00000E+00
 -1       285 1.47402E+02 3.09250E+01 0.00000E+00
 -1       286 1.47402E+02 3.38250E+01 0.00000E+00
 -1       287 1.47402E+02 3.67750E+01 0.00000E+00
 -1       288 1.47402E+02 3.97250E+01 0.00000E+00
 -1       289 1.47402E+02 4.26750E+01 0.00000E+00
 -1       290 1.46526E+02 4.50385E+01 0.00000E+00
 -1       291 1.18095E+02 1.42916E+01 0.00000E+00
 -1       292 1.17814E+02 1.25798E+01 0.00000E+00
 -1       293 1.17102E+02 1.09894E+01 0.00000E+00
 -1       294 1.16197E+02 9.36229E+00 0.00000E+00
 -1       295 1.14596E+02 8.40792E+00 0.00000E+00
 -1       296 1.13049E+02 7.49199E+00 0.00000E+00
 -1       297 1.11283E+02 7.07826E+00 0.00000E+00
 -1       298 1.09514E+02 6.90320E+00 0.00000E+00
 -1       299 1.07659E+02 7.13635E+00 0.00000E+00
 -1       300 1.06058E+02 7.96324E+00 0.00000E+00
 -1       301 1.04687E+02 8.90016E+00 0.00000E+00
 -1       302 1.03366E+02 1.00497E+01 0.00000E+00
 -1       303 1.02242E+02 1.15932E+01 0.00000E+00
 -1       304 1.01892E+02 1.34068E+01 0.00000E+00
 -1       305 1.01465E+02 1.51970E+01 0.00000E+00
 -1       306 1.01920E+02 1.70000E+01 0.00000E+00
 -1       307 1.02351E+02 1.87433E+01 0.00000E+00
 -1       308 1.03308E+02 2.03034E+01 0.00000E+00
 -1       309 1.04665E+02 2.14749E+01 0.00000E+00
 -1       310 1.06114E+02 2.24482E+01 0.00000E+00
 -1       311 1.07742E+02 2.30108E+01 0.00000E+00
 -1       312 1.09506E+02 2.34643E+01 0.00000E+00
 -1       313 1.11318E+02 2.32918E+01 0.00000E+00
 -1       314 1.12997E+02 2.28232E+01 0.00000E+00
 -1       315 1.14508E+02 2.19396E+01 0.00000E+00
 -1       316 1.15898E+02 2.08867E+01 0.00000E+00
 -1       317 1.16994E+02 1.94730E+01 0.00000E+00
 -1       318 1.17857E+02 1.78263E+01 0.00000E+00
 -1       319 1.18092E+02 1.60137E+01 0.00000E+00
 -1       320 5.19600E+00 4.11500E+01 0.00000E+00
 -1       321 5.19600E+00 4.41000E+01 0.00000E+00
 -1       322 5.19600E+00 3.52750E+01 0.00000E+00
 -1       323 5.19600E+00 3.23250E+01 0.00000E+00
 -1       324 5.19600E+00 2.93750E+01 0.00000E+00
 -1       325 5.19600E+00 2.64250E+01 0.00000E+00
 -1       326 5.19600E+00 2.34750E+01 0.00000E+00
 -1       327 5.19600E+00 2.05250E+01 0.00000E+00
 -1       328 5.19600E+00 1.76250E+01 0.00000E+00
 -1       329 5.19600E+00 1.46750E+01 0.00000E+00
 -1       330 5.19600E+00 1.17250E+01 0.00000E+00
 -1       331 5.19600E+00 8.77500E+00 0.00000E+00
 -1       332 5.19600E+00 5.82500E+00 0.00000E+00
 -1       333 5.53500E+00 4.00625E+00 0.00000E+00
 -1       334 8.53500E+00 4.00625E+00 0.00000E+00
 -1       335 9.15000E+00 4.48040E+01 0.00000E+00
 -1       336 1.21500E+01 4.48040E+01 0.00000E+00
 -1       337 1.51500E+01 4.48040E+01 0.00000E+00
 -1       338 1.81500E+01 4.48040E+01 0.00000E+00
 -1       339 2.11500E+01 4.48040E+01 0.00000E+00
 -1       340 2.41500E+01 4.48040E+01 0.00000E+00
 -1       341 2.71500E+01 4.48040E+01 0.00000E+00
 -1       342 3.01500E+01 4.48040E+01 0.00000E+00
 -1       343 3.31500E+01 4.48040E+01 0.00000E+00
 -1       344 3.61500E+01 4.48040E+01 0.00000E+00
 -1       345 3.91500E+01 4.48040E+01 0.00000E+00
 -1       346 4.21500E+01 4.48040E+01 0.00000E+00
 -1       347 4.51500E+01 4.48040E+01 0.00000E+00
 -1       348 4.81500E+01 4.48040E+01 0.00000E+00
 -1       349 5.11500E+01 4.48040E+01 0.00000E+00
 -1       350 5.41500E+01 4.48040E+01 0.00000E+00
 -1       351 5.71500E+01 4.48040E+01 0.00000E+00
 -1       352 6.01500E+01 4.48040E+01 0.00000E+00
 -1       353 6.31500E+01 4.48040E+01 0.00000E+00
 -1       354 6.61500E+01 4.48040E+01 0.00000E+00
 -1       355 6.91500E+01 4.48040E+01 0.00000E+00
 -1       356 7.21500E+01 4.48040E+01 0.00000E+00
 -1       357 7.51500E+01 4.48040E+01 0.00000E+00
 -1       358 7.81500E+01 4.48040E+01 0.00000E+00
 -1       359 8.11500E+01 4.48040E+01 0.00000E+00
 -1       360 8.41500E+01 4.48040E+01 0.00000E+00
 -1       361 8.71500E+01 4.48040E+01 0.00000E+00
 -1       362 9.01500E+01 4.48040E+01 0.00000E+00
 -1       363 9.31500E+01 4.48040E+01 0.00000E+00
 -1       364 9.61500E+01 4.48040E+01 0.00000E+00
 -1       365 9.91500E+01 4.48040E+01 0.00000E+00
 -1       366 1.02150E+02 4.48040E+01 0.00000E+00
 -1       367 1.05150E+02 4.48040E+01 0.00000E+00
 -1       368 1.08150E+02 4.48040E+01 0.00000E+00
 -1       369 1.11150E+02 4.48040E+01 0.00000E+00
 -1       370 1.14150E+02 4.48040E+01 0.00000E+00
 -1       371 1.17150E+02 4.48040E+01 0.00000E+00
 -1       372 1.20150E+02 4.48040E+01 0.00000E+00
 -1       373 1.23150E+02 4.48040E+01 0.00000E+00
 -1       374 1.26150E+02 4.48040E+01 0.00000E+00
 -1       375 1.29150E+02 4.48040E+01 0.00000E+00
 -1       376 1.32150E+02 4.48040E+01 0.00000E+00
 -1       377 1.35150E+02 4.48040E+01 0.00000E+00
 -1       378 1.38150E+02 4.48040E+01 0.00000E+00
 -1       379 1.41150E+02 4.48040E+01 0.00000E+00
 -1       380 1.43838E+02 4.49212E+01 0.00000E+00
 -1       381 1.15350E+01 4.00625E+00 0.00000E+00
 -1       382 1.45350E+01 4.00625E+00 0.00000E+00
 -1       383 1.75350E+01 4.00625E+00 0.00000E+00
 -1       384 2.05350E+01 4.00625E+00 0.00000E+00
 -1       385 2.35350E+01 4.00625E+00 0.00000E+00
 -1       386 2.66850E+01 4.00625E+00 0.00000E+00
 -1       387 2.96850E+01 4.00625E+00 0.00000E+00
 -1       388 3.26850E+01 4.00625E+00 0.00000E+00
 -1       389 3.56850E+01 4.00625E+00 0.00000E+00
 -1       390 3.86850E+01 4.00625E+00 0.00000E+00
 -1       391 4.16850E+01 4.00625E+00 0.00000E+00
 -1       392 4.46850E+01 4.00625E+00 0.00000E+00
 -1       393 4.76850E+01 4.00625E+00 0.00000E+00
 -1       394 5.08350E+01 4.00625E+00 0.00000E+00
 -1       395 5.38350E+01 4.00625E+00 0.00000E+00
 -1       396 5.68350E+01 4.00625E+00 0.00000E+00
 -1       397 5.98350E+01 4.00625E+00 0.00000E+00
 -1       398 6.28350E+01 4.00625E+00 0.00000E+00
 -1       399 6.58350E+01 4.00625E+00 0.00000E+00
 -1       400 6.88350E+01 4.00625E+00 0.00000E+00
 -1       401 7.18350E+01 4.00625E+00 0.00000E+00
 -1       402 7.49850E+01 4.00625E+00 0.00000E+00
 -1       403 7.79850E+01 4.00625E+00 0.00000E+00
 -1       404 8.09850E+01 4.00625E+00 0.00000E+00
 -1       405 8.39850E+01 4.00625E+00 0.00000E+00
 -1       406 8.69850E+01 4.00625E+00 0.00000E+00
 -1       407 8.99850E+01 4.00625E+00 0.00000E+00
 -1       408 9.29850E+01 4.00625E+00 0.00000E+00
 -1       409 9.59850E+01 4.00625E+00 0.00000E+00
 -1       410 9.91350E+01 4.00625E+00 0.00000E+00
 -1       411 1.01985E+02 4.00625E+00 0.00000E+00
 -1       412 1.04985E+02 4.00625E+00 0.00000E+00
 -1       413 1.07985E+02 4.00625E+00 0.00000E+00
 -1       414 1.10985E+02 4.00625E+00 0.00000E+00
 -1       415 1.13835E+02 4.00625E+00 0.00000E+00
 -1       416 1.16535E+02 4.00625E+00 0.00000E+00
 -1       417 1.19235E+02 4.00625E+00 0.00000E+00
 -1       418 1.22235E+02 4.00625E+00 0.00000E+00
 -1       419 1.25385E+02 4.00625E+00 0.00000E+00
 -1       420 1.28385E+02 4.00625E+00 0.00000E+00
 -1       421 1.31385E+02 4.00625E+00 0.00000E+00
 -1       422 1.34385E+02 4.00625E+00 0.00000E+00
 -1       423 1.37385E+02 4.00625E+00 0.00000E+00
 -1       424 1.40385E+02 4.00625E+00 0.00000E+00
 -1       425 1.43385E+02 4.00625E+00 0.00000E+00
 -1       426 1.45393E+02 4.21562E+00 0.00000E+00
 -1       427 1.44804E+02 1.18000E+01 0.00000E+00
 -1       428 1.44804E+02 8.85000E+00 0.00000E+00
 -1       429 1.45099E+02 6.53281E+00 0.00000E+00
 -1       430 1.44804E+02 1.47000E+01 0.00000E+00
 -1       431 1.44804E+02 1.76500E+01 0.00000E+00
 -1       432 1.44804E+02 2.06000E+01 0.00000E+00
 -1       433 1.44804E+02 2.35500E+01 0.00000E+00
 -1       434 1.44804E+02 2.65000E+01 0.00000E+00
 -1       435 1.44804E+02 2.94500E+01 0.00000E+00
 -1       436 1.44804E+02 3.23500E+01 0.00000E+00
 -1       437 1.44804E+02 3.53000E+01 0.00000E+00
 -1       438 1.44804E+02 3.82500E+01 0.00000E+00
 -1       439 1.44804E+02 4.12000E+01 0.00000E+00
 -1       440 1.18947E+02 1.11185E+01 0.00000E+00
 -1       441 1.19474E+02 1.51553E+01 0.00000E+00
 -1       442 1.19481E+02 1.31844E+01 0.00000E+00
 -1       443 1.18041E+02 9.49142E+00 0.00000E+00
 -1       444 1.16103E+02 7.69986E+00 0.00000E+00
 -1       445 5.19600E+00 3.82125E+01 0.00000E+00
 -1       446 1.12519E+02 5.77839E+00 0.00000E+00
 -1       447 1.10534E+02 5.61746E+00 0.00000E+00
 -1       448 1.08373E+02 5.31806E+00 0.00000E+00
 -1       449 1.06149E+02 6.17474E+00 0.00000E+00
 -1       450 1.04777E+02 7.11166E+00 0.00000E+00
 -1       451 1.03120E+02 8.43425E+00 0.00000E+00
 -1       452 1.01486E+02 9.86112E+00 0.00000E+00
 -1       453 1.00465E+02 1.21903E+01 0.00000E+00
 -1       454 1.00038E+02 1.39805E+01 0.00000E+00
 -1       455 1.00110E+02 1.64978E+01 0.00000E+00
 -1       456 1.00542E+02 1.82411E+01 0.00000E+00
 -1       457 1.01653E+02 2.02447E+01 0.00000E+00
 -1       458 1.02975E+02 2.20604E+01 0.00000E+00
 -1       459 1.04620E+02 2.31072E+01 0.00000E+00
 -1       460 1.06477E+02 2.40337E+01 0.00000E+00
 -1       461 1.08218E+02 2.48175E+01 0.00000E+00
 -1       462 1.10559E+02 2.49186E+01 0.00000E+00
 -1       463 1.12506E+02 2.43059E+01 0.00000E+00
 -1       464 1.14618E+02 2.38621E+01 0.00000E+00
 -1       465 1.16007E+02 2.28092E+01 0.00000E+00
 -1       466 1.17602E+02 2.10767E+01 0.00000E+00
 -1       467 1.18722E+02 1.93291E+01 0.00000E+00
 -1       468 1.19592E+02 1.71302E+01 0.00000E+00
 -1       469 1.14556E+02 6.78393E+00 0.00000E+00
 -1       470 1.17948E+02 7.82899E+00 0.00000E+00
 -1       471 1.00350E+01 6.60425E+00 0.00000E+00
 -1       472 7.79400E+00 3.08500E+01 0.00000E+00
 -1       473 7.79400E+00 3.38000E+01 0.00000E+00
 -1       474 7.79400E+00 2.49500E+01 0.00000E+00
 -1       475 7.79400E+00 2.20000E+01 0.00000E+00
 -1       476 7.79400E+00 1.91000E+01 0.00000E+00
 -1       477 7.79400E+00 1.61500E+01 0.00000E+00
 -1       478 7.79400E+00 1.32000E+01 0.00000E+00
 -1       479 7.79400E+00 1.02500E+01 0.00000E+00
 -1       480 1.30350E+01 6.60425E+00 0.00000E+00
 -1       481 1.06500E+01 4.22060E+01 0.00000E+00
 -1       482 1.36500E+01 4.22060E+01 0.00000E+00
 -1       483 1.66500E+01 4.22060E+01 0.00000E+00
 -1       484 1.96500E+01 4.22060E+01 0.00000E+00
 -1       485 2.26500E+01 4.22060E+01 0.00000E+00
 -1       486 2.56500E+01 4.22060E+01 0.00000E+00
 -1       487 2.86500E+01 4.22060E+01 0.00000E+00
 -1       488 3.16500E+01 4.22060E+01 0.00000E+00
 -1       489 3.46500E+01 4.22060E+01 0.00000E+00
 -1       490 3.76500E+01 4.22060E+01 0.00000E+00
 -1       491 4.06500E+01 4.22060E+01 0.00000E+00
 -1       492 4.36500E+01 4.22060E+01 0.00000E+00
 -1       493 4.66500E+01 4.22060E+01 0.00000E+00
 -1       494 4.96500E+01 4.22060E+01 0.00000E+00
 -1       495 5.26500E+01 4.22060E+01 0.00000E+00
 -1       496 5.56500E+01 4.22060E+01 0.00000E+00
 -1       497 5.86500E+01 4.22060E+01 0.00000E+00
 -1       498 6.16500E+01 4.22060E+01 0.00000E+00
 -1       499 6.46500E+01 4.22060E+01 0.00000E+00
 -1       500 6.76500E+01 4.22060E+01 0.00000E+00
 -1       501 7.06500E+01 4.22060E+01 0.00000E+00
 -1       502 7.36500E+01 4.22060E+01 0.00000E+00
 -1       503 7.66500E+01 4.22060E+01 0.00000E+00
 -1       504 7.96500E+01 4.22060E+01 0.00000E+00
 -1       505 8.26500E+01 4.22060E+01 0.00000E+00
 -1       506 8.56500E+01 4.22060E+01 0.00000E+00
 -1       507 8.86500E+01 4.22060E+01 0.00000E+00
 -1       508 9.16500E+01 4.22060E+01 0.00000E+00
 -1       509 9.46500E+01 4.22060E+01 0.00000E+00
 -1       510 9.76500E+01 4.22060E+01 0.00000E+00
 -1       511 1.00650E+02 4.22060E+01 0.00000E+00
 -1       512 1.03650E+02 4.22060E+01 0.00000E+00
 -1       513 1.06650E+02 4.22060E+01 0.00000E+00
 -1       514 1.09650E+02 4.22060E+01 0.00000E+00
 -1       515 1.12650E+02 4.22060E+01 0.00000E+00
 -1       516 1.15650E+02 4.22060E+01 0.00000E+00
 -1       517 1.18650E+02 4.22060E+01 0.00000E+00
 -1       518 1.21650E+02 4.22060E+01 0.00000E+00
 -1       519 1.24650E+02 4.22060E+01 0.00000E+00
 -1       520 1.27650E+02 4.22060E+01 0.00000E+00
 -1       521 1.30650E+02 4.22060E+01 0.00000E+00
 -1       522 1.33650E+02 4.22060E+01 0.00000E+00
 -1       523 1.36650E+02 4.22060E+01 0.00000E+00
 -1       524 1.39650E+02 4.22060E+01 0.00000E+00
 -1       525 1.90350E+01 6.60425E+00 0.00000E+00
 -1       526 2.20350E+01 6.60425E+00 0.00000E+00
 -1       527 2.51850E+01 6.60425E+00 0.00000E+00
 -1       528 2.81850E+01 6.60425E+00 0.00000E+00
 -1       529 3.11850E+01 6.60425E+00 0.00000E+00
 -1       530 3.41850E+01 6.60425E+00 0.00000E+00
 -1       531 3.71850E+01 6.60425E+00 0.00000E+00
 -1       532 4.01850E+01 6.60425E+00 0.00000E+00
 -1       533 4.31850E+01 6.60425E+00 0.00000E+00
 -1       534 4.61850E+01 6.60425E+00 0.00000E+00
 -1       535 4.93350E+01 6.60425E+00 0.00000E+00
 -1       536 5.23350E+01 6.60425E+00 0.00000E+00
 -1       537 5.53350E+01 6.60425E+00 0.00000E+00
 -1       538 5.83350E+01 6.60425E+00 0.00000E+00
 -1       539 6.13350E+01 6.60425E+00 0.00000E+00
 -1       540 6.43350E+01 6.60425E+00 0.00000E+00
 -1       541 6.73350E+01 6.60425E+00 0.00000E+00
 -1       542 7.03350E+01 6.60425E+00 0.00000E+00
 -1       543 7.34850E+01 6.60425E+00 0.00000E+00
 -1       544 7.64850E+01 6.60425E+00 0.00000E+00
 -1       545 7.94850E+01 6.60425E+00 0.00000E+00
 -1       546 8.24850E+01 6.60425E+00 0.00000E+00
 -1       547 8.54850E+01 6.60425E+00 0.00000E+00
 -1       548 8.84850E+01 6.60425E+00 0.00000E+00
 -1       549 9.14850E+01 6.60425E+00 0.00000E+00
 -1       550 9.44850E+01 6.60425E+00 0.00000E+00
 -1       551 9.76350E+01 6.60425E+00 0.00000E+00
 -1       552 1.00485E+02 6.60425E+00 0.00000E+00
 -1       553 1.03485E+02 6.05650E+00 0.00000E+00
 -1       554 1.17885E+02 6.05650E+00 0.00000E+00
 -1       555 1.20885E+02 6.05650E+00 0.00000E+00
 -1       556 1.24035E+02 6.05650E+00 0.00000E+00
 -1       557 1.27035E+02 6.05650E+00 0.00000E+00
 -1       558 1.30035E+02 6.05650E+00 0.00000E+00
 -1       559 1.33035E+02 6.05650E+00 0.00000E+00
 -1       560 1.36035E+02 6.05650E+00 0.00000E+00
 -1       561 1.39035E+02 6.05650E+00 0.00000E+00
 -1       562 1.42035E+02 6.05650E+00 0.00000E+00
 -1       563 1.42206E+02 1.61750E+01 0.00000E+00
 -1       564 1.42206E+02 1.91250E+01 0.00000E+00
 -1       565 1.42206E+02 1.03250E+01 0.00000E+00
 -1       566 1.42206E+02 1.32500E+01 0.00000E+00
 -1       567 1.42206E+02 2.20750E+01 0.00000E+00
 -1       568 1.42206E+02 2.50250E+01 0.00000E+00
 -1       569 1.42206E+02 2.79750E+01 0.00000E+00
 -1       570 1.42206E+02 3.08750E+01 0.00000E+00
 -1       571 1.42206E+02 3.38250E+01 0.00000E+00
 -1       572 1.42206E+02 3.67750E+01 0.00000E+00
 -1       573 1.42206E+02 3.97250E+01 0.00000E+00
 -1       574 1.21360E+02 1.41773E+01 0.00000E+00
 -1       575 1.20794E+02 1.17429E+01 0.00000E+00
 -1       576 1.21479E+02 1.61522E+01 0.00000E+00
 -1       577 1.60350E+01 6.60425E+00 0.00000E+00
 -1       578 1.19846E+02 9.55228E+00 0.00000E+00
 -1       579 7.92300E+00 4.16780E+01 0.00000E+00
 -1       580 1.20596E+02 1.87992E+01 0.00000E+00
 -1       581 1.13915E+02 2.57625E+01 0.00000E+00
 -1       582 9.94045E+01 1.03375E+01 0.00000E+00
 -1       583 7.79400E+00 2.79000E+01 0.00000E+00