    1C
    1UUSER                                                              
    1UDATE              27.october.2022                                 
    1UTIME              01:12:17                                        
    1UHOST                                                              
    1UPGM               CalculiX                                        
    1UVERSION           Version 2.17                             
    1UCOMPILETIME       Thu Jul 23 21:43:50 CEST 2020                    
    1UDIR                                                               
    1UDBN                                                               
    1UMAT    1SOLIDMATERIAL                                             
    2C                          4291                                     1
 -1         1 8.44725E+01 1.87805E+01 0.00000E+00
 -1         2 8.95776E+01 1.20419E+01 0.00000E+00
 -1         3 1.50000E+02 0.00000E+00 0.00000E+00
 -1         4 1.50000E+02 5.00000E+01 0.00000E+00
 -1         5 0.00000E+00 0.00000E+00 0.00000E+00
 -1         6 0.00000E+00 5.00000E+01 0.00000E+00
 -1         7 0.00000E+00 4.70500E+01 0.00000E+00
 -1         8 0.00000E+00 4.41000E+01 0.00000E+00
 -1         9 0.00000E+00 4.11500E+01 0.00000E+00
 -1        10 0.00000E+00 3.82000E+01 0.00000E+00
 -1        11 0.00000E+00 3.52500E+01 0.00000E+00
 -1        12 0.00000E+00 3.23500E+01 0.00000E+00
 -1        13 0.00000E+00 2.94000E+01 0.00000E+00
 -1        14 0.00000E+00 2.64500E+01 0.00000E+00
 -1        15 0.00000E+00 2.35000E+01 0.00000E+00
 -1        16 0.00000E+00 2.05500E+01 0.00000E+00
 -1        17 0.00000E+00 1.76000E+01 0.00000E+00
 -1        18 0.00000E+00 1.47000E+01 0.00000E+00
 -1        19 0.00000E+00 1.17500E+01 0.00000E+00
 -1        20 0.00000E+00 8.80000E+00 0.00000E+00
 -1        21 0.00000E+00 5.85000E+00 0.00000E+00
 -1        22 0.00000E+00 2.90000E+00 0.00000E+00
 -1        23 3.15000E+00 5.00000E+01 0.00000E+00
 -1        24 6.15000E+00 5.00000E+01 0.00000E+00
 -1        25 9.15000E+00 5.00000E+01 0.00000E+00
 -1        26 1.21500E+01 5.00000E+01 0.00000E+00
 -1        27 1.51500E+01 5.00000E+01 0.00000E+00
 -1        28 1.81500E+01 5.00000E+01 0.00000E+00
 -1        29 2.11500E+01 5.00000E+01 0.00000E+00
 -1        30 2.41500E+01 5.00000E+01 0.00000E+00
 -1        31 2.71500E+01 5.00000E+01 0.00000E+00
 -1        32 3.01500E+01 5.00000E+01 0.00000E+00
 -1        33 3.31500E+01 5.00000E+01 0.00000E+00
 -1        34 3.61500E+01 5.00000E+01 0.00000E+00
 -1        35 3.91500E+01 5.00000E+01 0.00000E+00
 -1        36 4.21500E+01 5.00000E+01 0.00000E+00
 -1        37 4.51500E+01 5.00000E+01 0.00000E+00
 -1        38 4.81500E+01 5.00000E+01 0.00000E+00
 -1        39 5.11500E+01 5.00000E+01 0.00000E+00
 -1        40 5.41500E+01 5.00000E+01 0.00000E+00
 -1        41 5.71500E+01 5.00000E+01 0.00000E+00
 -1        42 6.01500E+01 5.00000E+01 0.00000E+00
 -1        43 6.31500E+01 5.00000E+01 0.00000E+00
 -1        44 6.61500E+01 5.00000E+01 0.00000E+00
 -1        45 6.91500E+01 5.00000E+01 0.00000E+00
 -1        46 7.21500E+01 5.00000E+01 0.00000E+00
 -1        47 7.51500E+01 5.00000E+01 0.00000E+00
 -1        48 7.81500E+01 5.00000E+01 0.00000E+00
 -1        49 8.11500E+01 5.00000E+01 0.00000E+00
 -1        50 8.41500E+01 5.00000E+01 0.00000E+00
 -1        51 8.71500E+01 5.00000E+01 0.00000E+00
 -1        52 9.01500E+01 5.00000E+01 0.00000E+00
 -1        53 9.31500E+01 5.00000E+01 0.00000E+00
 -1        54 9.61500E+01 5.00000E+01 0.00000E+00
 -1        55 9.91500E+01 5.00000E+01 0.00000E+00
 -1        56 1.02150E+02 5.00000E+01 0.00000E+00
 -1        57 1.05150E+02 5.00000E+01 0.00000E+00
 -1        58 1.08150E+02 5.00000E+01 0.00000E+00
 -1        59 1.11150E+02 5.00000E+01 0.00000E+00
 -1        60 1.14150E+02 5.00000E+01 0.00000E+00
 -1        61 1.17150E+02 5.00000E+01 0.00000E+00
 -1        62 1.20150E+02 5.00000E+01 0.00000E+00
 -1        63 1.23150E+02 5.00000E+01 0.00000E+00
 -1        64 1.26150E+02 5.00000E+01 0.00000E+00
 -1        65 1.29150E+02 5.00000E+01 0.00000E+00
 -1        66 1.32150E+02 5.00000E+01 0.00000E+00
 -1        67 1.35150E+02 5.00000E+01 0.00000E+00
 -1        68 1.38150E+02 5.00000E+01 0.00000E+00
 -1        69 1.41150E+02 5.00000E+01 0.00000E+00
 -1        70 1.44150E+02 5.00000E+01 0.00000E+00
 -1        71 1.47150E+02 5.00000E+01 0.00000E+00
 -1        72 3.00000E+00 0.00000E+00 0.00000E+00
 -1        73 6.00000E+00 0.00000E+00 0.00000E+00
 -1        74 9.00000E+00 0.00000E+00 0.00000E+00
 -1        75 1.20000E+01 0.00000E+00 0.00000E+00
 -1        76 1.50000E+01 0.00000E+00 0.00000E+00
 -1        77 1.78500E+01 0.00000E+00 0.00000E+00
 -1        78 2.08500E+01 0.00000E+00 0.00000E+00
 -1        79 2.38500E+01 0.00000E+00 0.00000E+00
 -1        80 2.68500E+01 0.00000E+00 0.00000E+00
 -1        81 2.98500E+01 0.00000E+00 0.00000E+00
 -1        82 3.28500E+01 0.00000E+00 0.00000E+00
 -1        83 3.57000E+01 0.00000E+00 0.00000E+00
 -1        84 3.87000E+01 0.00000E+00 0.00000E+00
 -1        85 4.17000E+01 0.00000E+00 0.00000E+00
 -1        86 4.47000E+01 0.00000E+00 0.00000E+00
 -1        87 4.77000E+01 0.00000E+00 0.00000E+00
 -1        88 5.07000E+01 0.00000E+00 0.00000E+00
 -1        89 5.35500E+01 0.00000E+00 0.00000E+00
 -1        90 5.65500E+01 0.00000E+00 0.00000E+00
 -1        91 5.95500E+01 0.00000E+00 0.00000E+00
 -1        92 6.25500E+01 0.00000E+00 0.00000E+00
 -1        93 6.55500E+01 0.00000E+00 0.00000E+00
 -1        94 6.85500E+01 0.00000E+00 0.00000E+00
 -1        95 7.14000E+01 0.00000E+00 0.00000E+00
 -1        96 7.42500E+01 0.00000E+00 0.00000E+00
 -1        97 7.65000E+01 0.00000E+00 0.00000E+00
 -1        98 7.87500E+01 0.00000E+00 0.00000E+00
 -1        99 8.13000E+01 0.00000E+00 0.00000E+00
 -1       100 8.37000E+01 0.00000E+00 0.00000E+00
 -1       101 8.58000E+01 0.00000E+00 0.00000E+00
 -1       102 8.80500E+01 0.00000E+00 0.00000E+00
 -1       103 9.06000E+01 0.00000E+00 0.00000E+00
 -1       104 9.36000E+01 0.00000E+00 0.00000E+00
 -1       105 9.66000E+01 0.00000E+00 0.00000E+00
 -1       106 9.94500E+01 0.00000E+00 0.00000E+00
 -1       107 1.02450E+02 0.00000E+00 0.00000E+00
 -1       108 1.05450E+02 0.00000E+00 0.00000E+00
 -1       109 1.08450E+02 0.00000E+00 0.00000E+00
 -1       110 1.11450E+02 0.00000E+00 0.00000E+00
 -1       111 1.14450E+02 0.00000E+00 0.00000E+00
 -1       112 1.17300E+02 0.00000E+00 0.00000E+00
 -1       113 1.20300E+02 0.00000E+00 0.00000E+00
 -1       114 1.23300E+02 0.00000E+00 0.00000E+00
 -1       115 1.26300E+02 0.00000E+00 0.00000E+00
 -1       116 1.29300E+02 0.00000E+00 0.00000E+00
 -1       117 1.32300E+02 0.00000E+00 0.00000E+00
 -1       118 1.35150E+02 0.00000E+00 0.00000E+00
 -1       119 1.38150E+02 0.00000E+00 0.00000E+00
 -1       120 1.41150E+02 0.00000E+00 0.00000E+00
 -1       121 1.44150E+02 0.00000E+00 0.00000E+00
 -1       122 1.47150E+02 0.00000E+00 0.00000E+00
 -1       123 1.50000E+02 2.95000E+00 0.00000E+00
 -1       124 1.50000E+02 5.90000E+00 0.00000E+00
 -1       125 1.50000E+02 8.85000E+00 0.00000E+00
 -1       126 1.50000E+02 1.18000E+01 0.00000E+00
 -1       127 1.50000E+02 1.47500E+01 0.00000E+00
 -1       128 1.50000E+02 1.76500E+01 0.00000E+00
 -1       129 1.50000E+02 2.06000E+01 0.00000E+00
 -1       130 1.50000E+02 2.35500E+01 0.00000E+00
 -1       131 1.50000E+02 2.65000E+01 0.00000E+00
 -1       132 1.50000E+02 2.94500E+01 0.00000E+00
 -1       133 1.50000E+02 3.24000E+01 0.00000E+00
 -1       134 1.50000E+02 3.53000E+01 0.00000E+00
 -1       135 1.50000E+02 3.82500E+01 0.00000E+00
 -1       136 1.50000E+02 4.12000E+01 0.00000E+00
 -1       137 1.50000E+02 4.41500E+01 0.00000E+00
 -1       138 1.50000E+02 4.71000E+01 0.00000E+00
 -1       139 8.93988E+01 1.04699E+01 0.00000E+00
 -1       140 8.89343E+01 9.11076E+00 0.00000E+00
 -1       141 8.81443E+01 7.79792E+00 0.00000E+00
 -1       142 8.70347E+01 6.64429E+00 0.00000E+00
 -1       143 8.58447E+01 5.85107E+00 0.00000E+00
 -1       144 8.44977E+01 5.31037E+00 0.00000E+00
 -1       145 8.29104E+01 5.04978E+00 0.00000E+00
 -1       146 8.14518E+01 5.13298E+00 0.00000E+00
 -1       147 7.99367E+01 5.55914E+00 0.00000E+00
 -1       148 7.86654E+01 6.23711E+00 0.00000E+00
 -1       149 7.75547E+01 7.16632E+00 0.00000E+00
 -1       150 7.66220E+01 8.36340E+00 0.00000E+00
 -1       151 7.59960E+01 9.65801E+00 0.00000E+00
 -1       152 7.56341E+01 1.11537E+01 0.00000E+00
 -1       153 7.56087E+01 1.27011E+01 0.00000E+00
 -1       154 7.59289E+01 1.42317E+01 0.00000E+00
 -1       155 7.65443E+01 1.55915E+01 0.00000E+00
 -1       156 7.74676E+01 1.68260E+01 0.00000E+00
 -1       157 7.86138E+01 1.78115E+01 0.00000E+00
 -1       158 7.98387E+01 1.84838E+01 0.00000E+00
 -1       159 8.13824E+01 1.89391E+01 0.00000E+00
 -1       160 8.30075E+01 1.90286E+01 0.00000E+00
 -1       161 8.58669E+01 1.82209E+01 0.00000E+00
 -1       162 8.71004E+01 1.73845E+01 0.00000E+00
 -1       163 8.81112E+01 1.63289E+01 0.00000E+00
 -1       164 8.89208E+01 1.50022E+01 0.00000E+00
 -1       165 8.94045E+01 1.35886E+01 0.00000E+00
 -1       166 2.59800E+00 4.55750E+01 0.00000E+00
 -1       167 2.59800E+00 4.26250E+01 0.00000E+00
 -1       168 2.59800E+00 3.96750E+01 0.00000E+00
 -1       169 2.59800E+00 3.67250E+01 0.00000E+00
 -1       170 2.59800E+00 3.38250E+01 0.00000E+00
 -1       171 2.59800E+00 3.08750E+01 0.00000E+00
 -1       172 2.59800E+00 2.79250E+01 0.00000E+00
 -1       173 2.59800E+00 2.49750E+01 0.00000E+00
 -1       174 2.59800E+00 2.20250E+01 0.00000E+00
 -1       175 2.59800E+00 1.90750E+01 0.00000E+00
 -1       176 2.59800E+00 1.61750E+01 0.00000E+00
 -1       177 2.59800E+00 1.32250E+01 0.00000E+00
 -1       178 2.59800E+00 1.02750E+01 0.00000E+00
 -1       179 2.59800E+00 7.32500E+00 0.00000E+00
 -1       180 2.59800E+00 4.37500E+00 0.00000E+00
 -1       181 4.65000E+00 4.74020E+01 0.00000E+00
 -1       182 7.65000E+00 4.74020E+01 0.00000E+00
 -1       183 1.06500E+01 4.74020E+01 0.00000E+00
 -1       184 1.36500E+01 4.74020E+01 0.00000E+00
 -1       185 1.66500E+01 4.74020E+01 0.00000E+00
 -1       186 1.96500E+01 4.74020E+01 0.00000E+00
 -1       187 2.26500E+01 4.74020E+01 0.00000E+00
 -1       188 2.56500E+01 4.74020E+01 0.00000E+00
 -1       189 2.86500E+01 4.74020E+01 0.00000E+00
 -1       190 3.16500E+01 4.74020E+01 0.00000E+00
 -1       191 3.46500E+01 4.74020E+01 0.00000E+00
 -1       192 3.76500E+01 4.74020E+01 0.00000E+00
 -1       193 4.06500E+01 4.74020E+01 0.00000E+00
 -1       194 4.36500E+01 4.74020E+01 0.00000E+00
 -1       195 4.66500E+01 4.74020E+01 0.00000E+00
 -1       196 4.96500E+01 4.74020E+01 0.00000E+00
 -1       197 5.26500E+01 4.74020E+01 0.00000E+00
 -1       198 5.56500E+01 4.74020E+01 0.00000E+00
 -1       199 5.86500E+01 4.74020E+01 0.00000E+00
 -1       200 6.16500E+01 4.74020E+01 0.00000E+00
 -1       201 6.46500E+01 4.74020E+01 0.00000E+00
 -1       202 6.76500E+01 4.74020E+01 0.00000E+00
 -1       203 7.06500E+01 4.74020E+01 0.00000E+00
 -1       204 7.36500E+01 4.74020E+01 0.00000E+00
 -1       205 7.66500E+01 4.74020E+01 0.00000E+00
 -1       206 7.96500E+01 4.74020E+01 0.00000E+00
 -1       207 8.26500E+01 4.74020E+01 0.00000E+00
 -1       208 8.56500E+01 4.74020E+01 0.00000E+00
 -1       209 8.86500E+01 4.74020E+01 0.00000E+00
 -1       210 9.16500E+01 4.74020E+01 0.00000E+00
 -1       211 9.46500E+01 4.74020E+01 0.00000E+00
 -1       212 9.76500E+01 4.74020E+01 0.00000E+00
 -1       213 1.00650E+02 4.74020E+01 0.00000E+00
 -1       214 1.03650E+02 4.74020E+01 0.00000E+00
 -1       215 1.06650E+02 4.74020E+01 0.00000E+00
 -1       216 1.09650E+02 4.74020E+01 0.00000E+00
 -1       217 1.12650E+02 4.74020E+01 0.00000E+00
 -1       218 1.15650E+02 4.74020E+01 0.00000E+00
 -1       219 1.18650E+02 4.74020E+01 0.00000E+00
 -1       220 1.21650E+02 4.74020E+01 0.00000E+00
 -1       221 1.24650E+02 4.74020E+01 0.00000E+00
 -1       222 1.27650E+02 4.74020E+01 0.00000E+00
 -1       223 1.30650E+02 4.74020E+01 0.00000E+00
 -1       224 1.33650E+02 4.74020E+01 0.00000E+00
 -1       225 1.36650E+02 4.74020E+01 0.00000E+00
 -1       226 1.39650E+02 4.74020E+01 0.00000E+00
 -1       227 1.42650E+02 4.74020E+01 0.00000E+00
 -1       228 1.45650E+02 4.74020E+01 0.00000E+00
 -1       229 4.50000E+00 2.59800E+00 0.00000E+00
 -1       230 7.50000E+00 2.59800E+00 0.00000E+00
 -1       231 1.05000E+01 2.59800E+00 0.00000E+00
 -1       232 1.35000E+01 2.59800E+00 0.00000E+00
 -1       233 1.63500E+01 2.59800E+00 0.00000E+00
 -1       234 1.93500E+01 2.59800E+00 0.00000E+00
 -1       235 2.23500E+01 2.59800E+00 0.00000E+00
 -1       236 2.53500E+01 2.59800E+00 0.00000E+00
 -1       237 2.83500E+01 2.59800E+00 0.00000E+00
 -1       238 3.13500E+01 2.59800E+00 0.00000E+00
 -1       239 3.42000E+01 2.59800E+00 0.00000E+00
 -1       240 3.72000E+01 2.59800E+00 0.00000E+00
 -1       241 4.02000E+01 2.59800E+00 0.00000E+00
 -1       242 4.32000E+01 2.59800E+00 0.00000E+00
 -1       243 4.62000E+01 2.59800E+00 0.00000E+00
 -1       244 4.92000E+01 2.59800E+00 0.00000E+00
 -1       245 5.20500E+01 2.59800E+00 0.00000E+00
 -1       246 5.50500E+01 2.59800E+00 0.00000E+00
 -1       247 5.80500E+01 2.59800E+00 0.00000E+00
 -1       248 6.10500E+01 2.59800E+00 0.00000E+00
 -1       249 6.40500E+01 2.59800E+00 0.00000E+00
 -1       250 6.70500E+01 2.59800E+00 0.00000E+00
 -1       251 6.99000E+01 2.59800E+00 0.00000E+00
 -1       252 7.27500E+01 2.59800E+00 0.00000E+00
 -1       253 7.50000E+01 2.59800E+00 0.00000E+00
 -1       254 7.72500E+01 2.59800E+00 0.00000E+00
 -1       255 7.98000E+01 2.59800E+00 0.00000E+00
 -1       256 8.47500E+01 1.71511E+00 0.00000E+00
 -1       257 8.70000E+01 1.71511E+00 0.00000E+00
 -1       258 8.95500E+01 1.71511E+00 0.00000E+00
 -1       259 9.25500E+01 1.71511E+00 0.00000E+00
 -1       260 9.55500E+01 1.71511E+00 0.00000E+00
 -1       261 9.84000E+01 1.71511E+00 0.00000E+00
 -1       262 1.01400E+02 1.71511E+00 0.00000E+00
 -1       263 1.04400E+02 1.71511E+00 0.00000E+00
 -1       264 1.07400E+02 1.71511E+00 0.00000E+00
 -1       265 1.10400E+02 1.71511E+00 0.00000E+00
 -1       266 1.13400E+02 1.71511E+00 0.00000E+00
 -1       267 1.16250E+02 1.71511E+00 0.00000E+00
 -1       268 1.19250E+02 1.71511E+00 0.00000E+00
 -1       269 1.22250E+02 1.71511E+00 0.00000E+00
 -1       270 1.25250E+02 1.71511E+00 0.00000E+00
 -1       271 1.28250E+02 1.71511E+00 0.00000E+00
 -1       272 1.31250E+02 1.71511E+00 0.00000E+00
 -1       273 1.34100E+02 1.71511E+00 0.00000E+00
 -1       274 1.37100E+02 1.71511E+00 0.00000E+00
 -1       275 1.40100E+02 1.71511E+00 0.00000E+00
 -1       276 1.43100E+02 1.71511E+00 0.00000E+00
 -1       277 1.46100E+02 1.71511E+00 0.00000E+00
 -1       278 1.48050E+02 2.33256E+00 0.00000E+00
 -1       279 1.48050E+02 5.28256E+00 0.00000E+00
 -1       280 1.48050E+02 8.23256E+00 0.00000E+00
 -1       281 1.48050E+02 1.11826E+01 0.00000E+00
 -1       282 1.48050E+02 1.41326E+01 0.00000E+00
 -1       283 1.48050E+02 1.70326E+01 0.00000E+00
 -1       284 1.48050E+02 1.99826E+01 0.00000E+00
 -1       285 1.48050E+02 2.29326E+01 0.00000E+00
 -1       286 1.48050E+02 2.58826E+01 0.00000E+00
 -1       287 1.48050E+02 2.88326E+01 0.00000E+00
 -1       288 1.48050E+02 3.17826E+01 0.00000E+00
 -1       289 1.48050E+02 3.46826E+01 0.00000E+00
 -1       290 1.48050E+02 3.76326E+01 0.00000E+00
 -1       291 1.48050E+02 4.05826E+01 0.00000E+00
 -1       292 1.48050E+02 4.35326E+01 0.00000E+00
 -1       293 9.09426E+01 1.10905E+01 0.00000E+00
 -1       294 9.03138E+01 9.39830E+00 0.00000E+00
 -1       295 8.96499E+01 7.78603E+00 0.00000E+00
 -1       296 8.86445E+01 6.20639E+00 0.00000E+00
 -1       297 8.71121E+01 5.23885E+00 0.00000E+00
 -1       298 8.56228E+01 4.45558E+00 0.00000E+00
 -1       299 8.39547E+01 3.65297E+00 0.00000E+00
 -1       300 8.21073E+01 3.79729E+00 0.00000E+00
 -1       301 8.03206E+01 4.01763E+00 0.00000E+00
 -1       302 7.87305E+01 4.82835E+00 0.00000E+00
 -1       303 7.72784E+01 5.70755E+00 0.00000E+00
 -1       304 7.59998E+01 6.91670E+00 0.00000E+00
 -1       305 7.52175E+01 8.48292E+00 0.00000E+00
 -1       306 7.43923E+01 1.00617E+01 0.00000E+00
 -1       307 7.43254E+01 1.19061E+01 0.00000E+00
 -1       308 7.42541E+01 1.37833E+01 0.00000E+00
 -1       309 7.50557E+01 1.54460E+01 0.00000E+00
 -1       310 7.58337E+01 1.70854E+01 0.00000E+00
 -1       311 7.71956E+01 1.83016E+01 0.00000E+00
 -1       312 7.86429E+01 1.92105E+01 0.00000E+00
 -1       313 8.01728E+01 2.01958E+01 0.00000E+00
 -1       314 8.21144E+01 2.04454E+01 0.00000E+00
 -1       315 8.39565E+01 2.01825E+01 0.00000E+00
 -1       316 8.56213E+01 1.96259E+01 0.00000E+00
 -1       317 8.71640E+01 1.88062E+01 0.00000E+00
 -1       318 8.84815E+01 1.76952E+01 0.00000E+00
 -1       319 8.96940E+01 1.63844E+01 0.00000E+00
 -1       320 9.03890E+01 1.47151E+01 0.00000E+00
 -1       321 9.08625E+01 1.29687E+01 0.00000E+00
 -1       322 8.21804E+01 2.24036E+00 0.00000E+00
 -1       323 1.47402E+02 4.56250E+01 0.00000E+00
 -1       324 5.19600E+00 4.11500E+01 0.00000E+00
 -1       325 5.19600E+00 4.41000E+01 0.00000E+00
 -1       326 5.19600E+00 3.52750E+01 0.00000E+00
 -1       327 5.19600E+00 3.23250E+01 0.00000E+00
 -1       328 5.19600E+00 2.93750E+01 0.00000E+00
 -1       329 5.19600E+00 2.64250E+01 0.00000E+00
 -1       330 5.19600E+00 2.34750E+01 0.00000E+00
 -1       331 5.19600E+00 2.05250E+01 0.00000E+00
 -1       332 5.19600E+00 1.76250E+01 0.00000E+00
 -1       333 5.19600E+00 1.46750E+01 0.00000E+00
 -1       334 5.19600E+00 1.17250E+01 0.00000E+00
 -1       335 5.19600E+00 8.77500E+00 0.00000E+00
 -1       336 5.19600E+00 5.82500E+00 0.00000E+00
 -1       337 9.12579E+01 8.06674E+00 0.00000E+00
 -1       338 9.15000E+00 4.48040E+01 0.00000E+00
 -1       339 1.21500E+01 4.48040E+01 0.00000E+00
 -1       340 1.51500E+01 4.48040E+01 0.00000E+00
 -1       341 1.81500E+01 4.48040E+01 0.00000E+00
 -1       342 2.11500E+01 4.48040E+01 0.00000E+00
 -1       343 2.41500E+01 4.48040E+01 0.00000E+00
 -1       344 2.71500E+01 4.48040E+01 0.00000E+00
 -1       345 3.01500E+01 4.48040E+01 0.00000E+00
 -1       346 3.31500E+01 4.48040E+01 0.00000E+00
 -1       347 3.61500E+01 4.48040E+01 0.00000E+00
 -1       348 3.91500E+01 4.48040E+01 0.00000E+00
 -1       349 4.21500E+01 4.48040E+01 0.00000E+00
 -1       350 4.51500E+01 4.48040E+01 0.00000E+00
 -1       351 4.81500E+01 4.48040E+01 0.00000E+00
 -1       352 5.11500E+01 4.48040E+01 0.00000E+00
 -1       353 5.41500E+01 4.48040E+01 0.00000E+00
 -1       354 5.71500E+01 4.48040E+01 0.00000E+00
 -1       355 6.01500E+01 4.48040E+01 0.00000E+00
 -1       356 6.31500E+01 4.48040E+01 0.00000E+00
 -1       357 6.61500E+01 4.48040E+01 0.00000E+00
 -1       358 6.91500E+01 4.48040E+01 0.00000E+00
 -1       359 7.21500E+01 4.48040E+01 0.00000E+00
 -1       360 7.51500E+01 4.48040E+01 0.00000E+00
 -1       361 7.81500E+01 4.48040E+01 0.00000E+00
 -1       362 8.11500E+01 4.48040E+01 0.00000E+00
 -1       363 8.41500E+01 4.48040E+01 0.00000E+00
 -1       364 8.71500E+01 4.48040E+01 0.00000E+00
 -1       365 9.01500E+01 4.48040E+01 0.00000E+00
 -1       366 9.31500E+01 4.48040E+01 0.00000E+00
 -1       367 9.61500E+01 4.48040E+01 0.00000E+00
 -1       368 9.91500E+01 4.48040E+01 0.00000E+00
 -1       369 1.02150E+02 4.48040E+01 0.00000E+00
 -1       370 1.05150E+02 4.48040E+01 0.00000E+00
 -1       371 1.08150E+02 4.48040E+01 0.00000E+00
 -1       372 1.11150E+02 4.48040E+01 0.00000E+00
 -1       373 1.14150E+02 4.48040E+01 0.00000E+00
 -1       374 1.17150E+02 4.48040E+01 0.00000E+00
 -1       375 1.20150E+02 4.48040E+01 0.00000E+00
 -1       376 1.23150E+02 4.48040E+01 0.00000E+00
 -1       377 1.26150E+02 4.48040E+01 0.00000E+00
 -1       378 1.29150E+02 4.48040E+01 0.00000E+00
 -1       379 1.32150E+02 4.48040E+01 0.00000E+00
 -1       380 1.35150E+02 4.48040E+01 0.00000E+00
 -1       381 1.38150E+02 4.48040E+01 0.00000E+00
 -1       382 1.41150E+02 4.48040E+01 0.00000E+00
 -1       383 1.44150E+02 4.48040E+01 0.00000E+00
 -1       384 9.10500E+01 3.93294E+00 0.00000E+00
 -1       385 1.20000E+01 5.19600E+00 0.00000E+00
 -1       386 9.00000E+00 5.19600E+00 0.00000E+00
 -1       387 1.48500E+01 5.19600E+00 0.00000E+00
 -1       388 1.78500E+01 5.19600E+00 0.00000E+00
 -1       389 2.08500E+01 5.19600E+00 0.00000E+00
 -1       390 2.38500E+01 5.19600E+00 0.00000E+00
 -1       391 2.68500E+01 5.19600E+00 0.00000E+00
 -1       392 2.98500E+01 5.19600E+00 0.00000E+00
 -1       393 3.27000E+01 5.19600E+00 0.00000E+00
 -1       394 3.57000E+01 5.19600E+00 0.00000E+00
 -1       395 3.87000E+01 5.19600E+00 0.00000E+00
 -1       396 4.17000E+01 5.19600E+00 0.00000E+00
 -1       397 4.47000E+01 5.19600E+00 0.00000E+00
 -1       398 4.77000E+01 5.19600E+00 0.00000E+00
 -1       399 5.05500E+01 5.19600E+00 0.00000E+00
 -1       400 5.35500E+01 5.19600E+00 0.00000E+00
 -1       401 5.65500E+01 5.19600E+00 0.00000E+00
 -1       402 5.95500E+01 5.19600E+00 0.00000E+00
 -1       403 6.25500E+01 5.19600E+00 0.00000E+00
 -1       404 6.55500E+01 5.19600E+00 0.00000E+00
 -1       405 6.84000E+01 5.19600E+00 0.00000E+00
 -1       406 7.12500E+01 5.19600E+00 0.00000E+00
 -1       407 7.61250E+01 4.48068E+00 0.00000E+00
 -1       408 9.40500E+01 3.93294E+00 0.00000E+00
 -1       409 9.69000E+01 3.93294E+00 0.00000E+00
 -1       410 9.99000E+01 3.93294E+00 0.00000E+00
 -1       411 1.02900E+02 3.93294E+00 0.00000E+00
 -1       412 1.05900E+02 3.93294E+00 0.00000E+00
 -1       413 1.08900E+02 3.93294E+00 0.00000E+00
 -1       414 1.11900E+02 3.93294E+00 0.00000E+00
 -1       415 1.14750E+02 3.93294E+00 0.00000E+00
 -1       416 1.17750E+02 3.93294E+00 0.00000E+00
 -1       417 1.20750E+02 3.93294E+00 0.00000E+00
 -1       418 1.23750E+02 3.93294E+00 0.00000E+00
 -1       419 1.26750E+02 3.93294E+00 0.00000E+00
 -1       420 1.29750E+02 3.93294E+00 0.00000E+00
 -1       421 1.32600E+02 3.93294E+00 0.00000E+00
 -1       422 1.35600E+02 3.93294E+00 0.00000E+00
 -1       423 1.38600E+02 3.93294E+00 0.00000E+00
 -1       424 1.41600E+02 3.93294E+00 0.00000E+00
 -1       425 1.44600E+02 3.93294E+00 0.00000E+00
 -1       426 1.46325E+02 4.60775E+00 0.00000E+00
 -1       427 1.45452E+02 9.70756E+00 0.00000E+00
 -1       428 1.45889E+02 7.15765E+00 0.00000E+00
 -1       429 1.45452E+02 1.26576E+01 0.00000E+00
 -1       430 1.45452E+02 1.55576E+01 0.00000E+00
 -1       431 1.45452E+02 1.85076E+01 0.00000E+00
 -1       432 1.45452E+02 2.14576E+01 0.00000E+00
 -1       433 1.45452E+02 2.44076E+01 0.00000E+00
 -1       434 1.45452E+02 2.73576E+01 0.00000E+00
 -1       435 1.45452E+02 3.03076E+01 0.00000E+00
 -1       436 1.45452E+02 3.32076E+01 0.00000E+00
 -1       437 1.45452E+02 3.61576E+01 0.00000E+00
 -1       438 1.45452E+02 3.91076E+01 0.00000E+00
 -1       439 1.45452E+02 4.20576E+01 0.00000E+00
 -1       440 9.03114E+01 6.25521E+00 0.00000E+00
 -1       441 9.21975E+01 1.20848E+01 0.00000E+00
 -1       442 5.19600E+00 3.82125E+01 0.00000E+00
 -1       443 8.87493E+01 4.34325E+00 0.00000E+00
 -1       444 8.72600E+01 3.55998E+00 0.00000E+00
 -1       445 7.56909E+01 5.30950E+00 0.00000E+00
 -1       446 7.40743E+01 6.93341E+00 0.00000E+00
 -1       447 7.32491E+01 8.51219E+00 0.00000E+00
 -1       448 7.29798E+01 1.09339E+01 0.00000E+00
 -1       449 7.29085E+01 1.28111E+01 0.00000E+00
 -1       450 7.34118E+01 1.52140E+01 0.00000E+00
 -1       451 7.41899E+01 1.68534E+01 0.00000E+00
 -1       452 7.54839E+01 1.88478E+01 0.00000E+00
 -1       453 7.70517E+01 2.01375E+01 0.00000E+00
 -1       454 7.85816E+01 2.11228E+01 0.00000E+00
 -1       455 8.09570E+01 2.17724E+01 0.00000E+00
 -1       456 8.32541E+01 2.18460E+01 0.00000E+00
 -1       457 8.51999E+01 2.11335E+01 0.00000E+00
 -1       458 8.70401E+01 2.04347E+01 0.00000E+00
 -1       459 8.88204E+01 1.94338E+01 0.00000E+00
 -1       460 9.00329E+01 1.81229E+01 0.00000E+00
 -1       461 9.15475E+01 1.61768E+01 0.00000E+00
 -1       462 9.19576E+01 1.42029E+01 0.00000E+00
 -1       463 9.20003E+01 9.73458E+00 0.00000E+00
 -1       464 9.32553E+01 1.07289E+01 0.00000E+00
 -1       465 7.37756E+01 4.92215E+00 0.00000E+00
 -1       466 7.20663E+01 1.42417E+01 0.00000E+00
 -1       467 7.79400E+00 3.08500E+01 0.00000E+00
 -1       468 7.79400E+00 3.38000E+01 0.00000E+00
 -1       469 7.79400E+00 2.49500E+01 0.00000E+00
 -1       470 7.79400E+00 2.20000E+01 0.00000E+00
 -1       471 7.79400E+00 1.91000E+01 0.00000E+00
 -1       472 7.79400E+00 1.61500E+01 0.00000E+00
 -1       473 7.79400E+00 1.32000E+01 0.00000E+00
 -1       474 7.79400E+00 1.02500E+01 0.00000E+00
 -1       475 8.39700E+00 7.72300E+00 0.00000E+00
 -1       476 1.06500E+01 4.22060E+01 0.00000E+00
 -1       477 1.36500E+01 4.22060E+01 0.00000E+00
 -1       478 1.66500E+01 4.22060E+01 0.00000E+00
 -1       479 1.96500E+01 4.22060E+01 0.00000E+00
 -1       480 2.26500E+01 4.22060E+01 0.00000E+00
 -1       481 2.56500E+01 4.22060E+01 0.00000E+00
 -1       482 2.86500E+01 4.22060E+01 0.00000E+00
 -1       483 3.16500E+01 4.22060E+01 0.00000E+00
 -1       484 3.46500E+01 4.22060E+01 0.00000E+00
 -1       485 3.76500E+01 4.22060E+01 0.00000E+00
 -1       486 4.06500E+01 4.22060E+01 0.00000E+00
 -1       487 4.36500E+01 4.22060E+01 0.00000E+00
 -1       488 4.66500E+01 4.22060E+01 0.00000E+00
 -1       489 4.96500E+01 4.22060E+01 0.00000E+00
 -1       490 5.26500E+01 4.22060E+01 0.00000E+00
 -1       491 5.56500E+01 4.22060E+01 0.00000E+00
 -1       492 5.86500E+01 4.22060E+01 0.00000E+00
 -1       493 6.16500E+01 4.22060E+01 0.00000E+00
 -1       494 6.46500E+01 4.22060E+01 0.00000E+00
 -1       495 6.76500E+01 4.22060E+01 0.00000E+00
 -1       496 7.06500E+01 4.22060E+01 0.00000E+00
 -1       497 7.36500E+01 4.22060E+01 0.00000E+00
 -1       498 7.66500E+01 4.22060E+01 0.00000E+00
 -1       499 7.96500E+01 4.22060E+01 0.00000E+00
 -1       500 8.26500E+01 4.22060E+01 0.00000E+00
 -1       501 8.56500E+01 4.22060E+01 0.00000E+00
 -1       502 8.86500E+01 4.22060E+01 0.00000E+00
 -1       503 9.16500E+01 4.22060E+01 0.00000E+00
 -1       504 9.46500E+01 4.22060E+01 0.00000E+00
 -1       505 9.76500E+01 4.22060E+01 0.00000E+00
 -1       506 1.00650E+02 4.22060E+01 0.00000E+00
 -1       507 1.03650E+02 4.22060E+01 0.00000E+00
 -1       508 1.06650E+02 4.22060E+01 0.00000E+00
 -1       509 1.09650E+02 4.22060E+01 0.00000E+00
 -1       510 1.12650E+02 4.22060E+01 0.00000E+00
 -1       511 1.15650E+02 4.22060E+01 0.00000E+00
 -1       512 1.18650E+02 4.22060E+01 0.00000E+00
 -1       513 1.21650E+02 4.22060E+01 0.00000E+00
 -1       514 1.24650E+02 4.22060E+01 0.00000E+00
 -1       515 1.27650E+02 4.22060E+01 0.00000E+00
 -1       516 1.30650E+02 4.22060E+01 0.00000E+00
 -1       517 1.33650E+02 4.22060E+01 0.00000E+00
 -1       518 1.36650E+02 4.22060E+01 0.00000E+00
 -1       519 1.39650E+02 4.22060E+01 0.00000E+00
 -1       520 1.42551E+02 4.21318E+01 0.00000E+00
 -1       521 9.54750E+01 6.48590E+00 0.00000E+00
 -1       522 1.34250E+01 7.79400E+00 0.00000E+00
 -1       523 1.93500E+01 7.79400E+00 0.00000E+00
 -1       524 2.23500E+01 7.79400E+00 0.00000E+00
 -1       525 2.53500E+01 7.79400E+00 0.00000E+00
 -1       526 2.83500E+01 7.79400E+00 0.00000E+00
 -1       527 3.12000E+01 7.79400E+00 0.00000E+00
 -1       528 3.42000E+01 7.79400E+00 0.00000E+00
 -1       529 3.72000E+01 7.79400E+00 0.00000E+00
 -1       530 4.02000E+01 7.79400E+00 0.00000E+00
 -1       531 4.32000E+01 7.79400E+00 0.00000E+00
 -1       532 4.62000E+01 7.79400E+00 0.00000E+00
 -1       533 4.90500E+01 7.79400E+00 0.00000E+00
 -1       534 5.20500E+01 7.79400E+00 0.00000E+00
 -1       535 5.50500E+01 7.79400E+00 0.00000E+00
 -1       536 5.80500E+01 7.79400E+00 0.00000E+00
 -1       537 6.10500E+01 7.79400E+00 0.00000E+00
 -1       538 6.40500E+01 7.79400E+00 0.00000E+00
 -1       539 6.69000E+01 7.79400E+00 0.00000E+00
 -1       540 6.97500E+01 7.79400E+00 0.00000E+00
 -1       541 9.28932E+01 6.37056E+00 0.00000E+00
 -1       542 7.15764E+01 9.55197E+00 0.00000E+00
 -1       543 7.92300E+00 4.16780E+01 0.00000E+00
 -1       544 1.01400E+02 6.53094E+00 0.00000E+00
 -1       545 1.04400E+02 6.53094E+00 0.00000E+00
 -1       546 1.07400E+02 6.53094E+00 0.00000E+00
 -1       547 1.10400E+02 6.53094E+00 0.00000E+00
 -1       548 1.13250E+02 6.53094E+00 0.00000E+00
 -1       549 1.16250E+02 6.53094E+00 0.00000E+00
 -1       550 1.19250E+02 6.53094E+00 0.00000E+00
 -1       551 1.22250E+02 6.53094E+00 0.00000E+00
 -1       552 1.25250E+02 6.53094E+00 0.00000E+00
 -1       553 1.28250E+02 6.53094E+00 0.00000E+00
 -1       554 1.31100E+02 6.53094E+00 0.00000E+00
 -1       555 1.34100E+02 6.53094E+00 0.00000E+00
 -1       556 1.37100E+02 6.53094E+00 0.00000E+00
 -1       557 1.40100E+02 6.53094E+00 0.00000E+00
 -1       558 1.44163E+02 6.48284E+00 0.00000E+00
 -1       559 1.42854E+02 1.41076E+01 0.00000E+00
 -1       560 1.42854E+02 1.70576E+01 0.00000E+00
 -1       561 1.42854E+02 1.11576E+01 0.00000E+00
 -1       562 1.42854E+02 2.00076E+01 0.00000E+00
 -1       563 1.42854E+02 2.29576E+01 0.00000E+00
 -1       564 1.42854E+02 2.59076E+01 0.00000E+00
 -1       565 1.42854E+02 2.88576E+01 0.00000E+00
 -1       566 1.42854E+02 3.17576E+01 0.00000E+00
 -1       567 1.42854E+02 3.47076E+01 0.00000E+00
 -1       568 1.42854E+02 3.76576E+01 0.00000E+00
 -1       569 1.42702E+02 3.98947E+01 0.00000E+00
 -1       570 9.30742E+01 8.54973E+00 0.00000E+00
 -1       571 9.19453E+01 1.80489E+01 0.00000E+00
 -1       572 8.86887E+01 2.12832E+01 0.00000E+00
 -1       573 7.34684E+01 1.87385E+01 0.00000E+00
 -1       574 9.84375E+01 6.50842E+00 0.00000E+00
 -1       575 1.09110E+01 7.75850E+00 0.00000E+00
 -1       576 1.63875E+01 7.79400E+00 0.00000E+00
 -1       577 7.79400E+00 2.79000E+01 0.00000E+00
 -1       578 9.37818E+01 1.33369E+01 0.00000E+00
 -1       579 7.51781E+01 2.08172E+01 0.00000E+00
 -1       580 7.22902E+01 7.00598E+00 0.00000E+00
 -1       581 7.12303E+01 1.18073E+01 0.00000E+00
 -1       582 7.24028E+01 1.66972E+01 0.00000E+00
 -1       583 8.20533E+01 2.34397E+01 0.00000E+00