    1C
    1UUSER                                                              
    1UDATE              27.october.2022                                 
    1UTIME              00:50:01                                        
    1UHOST                                                              
    1UPGM               CalculiX                                        
    1UVERSION           Version 2.17                             
    1UCOMPILETIME       Thu Jul 23 21:43:50 CEST 2020                    
    1UDIR                                                               
    1UDBN                                                               
    1UMAT    1SOLIDMATERIAL                                             
    2C                          4216                                     1
 -1         1 9.78575E+01 3.54546E+01 0.00000E+00
 -1         2 1.11319E+02 3.27627E+01 0.00000E+00
 -1         3 1.50000E+02 0.00000E+00 0.00000E+00
 -1         4 1.50000E+02 5.00000E+01 0.00000E+00
 -1         5 0.00000E+00 0.00000E+00 0.00000E+00
 -1         6 0.00000E+00 5.00000E+01 0.00000E+00
 -1         7 0.00000E+00 4.70500E+01 0.00000E+00
 -1         8 0.00000E+00 4.41000E+01 0.00000E+00
 -1         9 0.00000E+00 4.11500E+01 0.00000E+00
 -1        10 0.00000E+00 3.82000E+01 0.00000E+00
 -1        11 0.00000E+00 3.52500E+01 0.00000E+00
 -1        12 0.00000E+00 3.23500E+01 0.00000E+00
 -1        13 0.00000E+00 2.94000E+01 0.00000E+00
 -1        14 0.00000E+00 2.64500E+01 0.00000E+00
 -1        15 0.00000E+00 2.35000E+01 0.00000E+00
 -1        16 0.00000E+00 2.05500E+01 0.00000E+00
 -1        17 0.00000E+00 1.76000E+01 0.00000E+00
 -1        18 0.00000E+00 1.47000E+01 0.00000E+00
 -1        19 0.00000E+00 1.17500E+01 0.00000E+00
 -1        20 0.00000E+00 8.80000E+00 0.00000E+00
 -1        21 0.00000E+00 5.85000E+00 0.00000E+00
 -1        22 0.00000E+00 2.90000E+00 0.00000E+00
 -1        23 3.15000E+00 5.00000E+01 0.00000E+00
 -1        24 6.15000E+00 5.00000E+01 0.00000E+00
 -1        25 9.15000E+00 5.00000E+01 0.00000E+00
 -1        26 1.21500E+01 5.00000E+01 0.00000E+00
 -1        27 1.51500E+01 5.00000E+01 0.00000E+00
 -1        28 1.81500E+01 5.00000E+01 0.00000E+00
 -1        29 2.11500E+01 5.00000E+01 0.00000E+00
 -1        30 2.41500E+01 5.00000E+01 0.00000E+00
 -1        31 2.71500E+01 5.00000E+01 0.00000E+00
 -1        32 3.01500E+01 5.00000E+01 0.00000E+00
 -1        33 3.31500E+01 5.00000E+01 0.00000E+00
 -1        34 3.61500E+01 5.00000E+01 0.00000E+00
 -1        35 3.91500E+01 5.00000E+01 0.00000E+00
 -1        36 4.21500E+01 5.00000E+01 0.00000E+00
 -1        37 4.51500E+01 5.00000E+01 0.00000E+00
 -1        38 4.81500E+01 5.00000E+01 0.00000E+00
 -1        39 5.11500E+01 5.00000E+01 0.00000E+00
 -1        40 5.41500E+01 5.00000E+01 0.00000E+00
 -1        41 5.71500E+01 5.00000E+01 0.00000E+00
 -1        42 6.01500E+01 5.00000E+01 0.00000E+00
 -1        43 6.31500E+01 5.00000E+01 0.00000E+00
 -1        44 6.61500E+01 5.00000E+01 0.00000E+00
 -1        45 6.91500E+01 5.00000E+01 0.00000E+00
 -1        46 7.21500E+01 5.00000E+01 0.00000E+00
 -1        47 7.51500E+01 5.00000E+01 0.00000E+00
 -1        48 7.81500E+01 5.00000E+01 0.00000E+00
 -1        49 8.11500E+01 5.00000E+01 0.00000E+00
 -1        50 8.41500E+01 5.00000E+01 0.00000E+00
 -1        51 8.71500E+01 5.00000E+01 0.00000E+00
 -1        52 9.01500E+01 5.00000E+01 0.00000E+00
 -1        53 9.33000E+01 5.00000E+01 0.00000E+00
 -1        54 9.63000E+01 5.00000E+01 0.00000E+00
 -1        55 9.93000E+01 5.00000E+01 0.00000E+00
 -1        56 1.02300E+02 5.00000E+01 0.00000E+00
 -1        57 1.05150E+02 5.00000E+01 0.00000E+00
 -1        58 1.08150E+02 5.00000E+01 0.00000E+00
 -1        59 1.11000E+02 5.00000E+01 0.00000E+00
 -1        60 1.14000E+02 5.00000E+01 0.00000E+00
 -1        61 1.17000E+02 5.00000E+01 0.00000E+00
 -1        62 1.20000E+02 5.00000E+01 0.00000E+00
 -1        63 1.23000E+02 5.00000E+01 0.00000E+00
 -1        64 1.26000E+02 5.00000E+01 0.00000E+00
 -1        65 1.29000E+02 5.00000E+01 0.00000E+00
 -1        66 1.32000E+02 5.00000E+01 0.00000E+00
 -1        67 1.35000E+02 5.00000E+01 0.00000E+00
 -1        68 1.38000E+02 5.00000E+01 0.00000E+00
 -1        69 1.41000E+02 5.00000E+01 0.00000E+00
 -1        70 1.44000E+02 5.00000E+01 0.00000E+00
 -1        71 1.47000E+02 5.00000E+01 0.00000E+00
 -1        72 3.15000E+00 0.00000E+00 0.00000E+00
 -1        73 6.15000E+00 0.00000E+00 0.00000E+00
 -1        74 9.15000E+00 0.00000E+00 0.00000E+00
 -1        75 1.21500E+01 0.00000E+00 0.00000E+00
 -1        76 1.51500E+01 0.00000E+00 0.00000E+00
 -1        77 1.81500E+01 0.00000E+00 0.00000E+00
 -1        78 2.11500E+01 0.00000E+00 0.00000E+00
 -1        79 2.41500E+01 0.00000E+00 0.00000E+00
 -1        80 2.71500E+01 0.00000E+00 0.00000E+00
 -1        81 3.01500E+01 0.00000E+00 0.00000E+00
 -1        82 3.31500E+01 0.00000E+00 0.00000E+00
 -1        83 3.61500E+01 0.00000E+00 0.00000E+00
 -1        84 3.91500E+01 0.00000E+00 0.00000E+00
 -1        85 4.21500E+01 0.00000E+00 0.00000E+00
 -1        86 4.51500E+01 0.00000E+00 0.00000E+00
 -1        87 4.81500E+01 0.00000E+00 0.00000E+00
 -1        88 5.11500E+01 0.00000E+00 0.00000E+00
 -1        89 5.41500E+01 0.00000E+00 0.00000E+00
 -1        90 5.71500E+01 0.00000E+00 0.00000E+00
 -1        91 6.01500E+01 0.00000E+00 0.00000E+00
 -1        92 6.31500E+01 0.00000E+00 0.00000E+00
 -1        93 6.61500E+01 0.00000E+00 0.00000E+00
 -1        94 6.91500E+01 0.00000E+00 0.00000E+00
 -1        95 7.21500E+01 0.00000E+00 0.00000E+00
 -1        96 7.51500E+01 0.00000E+00 0.00000E+00
 -1        97 7.81500E+01 0.00000E+00 0.00000E+00
 -1        98 8.11500E+01 0.00000E+00 0.00000E+00
 -1        99 8.41500E+01 0.00000E+00 0.00000E+00
 -1       100 8.71500E+01 0.00000E+00 0.00000E+00
 -1       101 9.01500E+01 0.00000E+00 0.00000E+00
 -1       102 9.31500E+01 0.00000E+00 0.00000E+00
 -1       103 9.61500E+01 0.00000E+00 0.00000E+00
 -1       104 9.91500E+01 0.00000E+00 0.00000E+00
 -1       105 1.02150E+02 0.00000E+00 0.00000E+00
 -1       106 1.05150E+02 0.00000E+00 0.00000E+00
 -1       107 1.08150E+02 0.00000E+00 0.00000E+00
 -1       108 1.11150E+02 0.00000E+00 0.00000E+00
 -1       109 1.14150E+02 0.00000E+00 0.00000E+00
 -1       110 1.17150E+02 0.00000E+00 0.00000E+00
 -1       111 1.20150E+02 0.00000E+00 0.00000E+00
 -1       112 1.23150E+02 0.00000E+00 0.00000E+00
 -1       113 1.26150E+02 0.00000E+00 0.00000E+00
 -1       114 1.29150E+02 0.00000E+00 0.00000E+00
 -1       115 1.32150E+02 0.00000E+00 0.00000E+00
 -1       116 1.35150E+02 0.00000E+00 0.00000E+00
 -1       117 1.38150E+02 0.00000E+00 0.00000E+00
 -1       118 1.41150E+02 0.00000E+00 0.00000E+00
 -1       119 1.44150E+02 0.00000E+00 0.00000E+00
 -1       120 1.47150E+02 0.00000E+00 0.00000E+00
 -1       121 1.50000E+02 2.95000E+00 0.00000E+00
 -1       122 1.50000E+02 5.90000E+00 0.00000E+00
 -1       123 1.50000E+02 8.85000E+00 0.00000E+00
 -1       124 1.50000E+02 1.18000E+01 0.00000E+00
 -1       125 1.50000E+02 1.47500E+01 0.00000E+00
 -1       126 1.50000E+02 1.76500E+01 0.00000E+00
 -1       127 1.50000E+02 2.06000E+01 0.00000E+00
 -1       128 1.50000E+02 2.35500E+01 0.00000E+00
 -1       129 1.50000E+02 2.65000E+01 0.00000E+00
 -1       130 1.50000E+02 2.94500E+01 0.00000E+00
 -1       131 1.50000E+02 3.24000E+01 0.00000E+00
 -1       132 1.50000E+02 3.53000E+01 0.00000E+00
 -1       133 1.50000E+02 3.82500E+01 0.00000E+00
 -1       134 1.50000E+02 4.12000E+01 0.00000E+00
 -1       135 1.50000E+02 4.41500E+01 0.00000E+00
 -1       136 1.50000E+02 4.71000E+01 0.00000E+00
 -1       137 1.11173E+02 3.13376E+01 0.00000E+00
 -1       138 1.10736E+02 2.99652E+01 0.00000E+00
 -1       139 1.10020E+02 2.87003E+01 0.00000E+00
 -1       140 1.09029E+02 2.75842E+01 0.00000E+00
 -1       141 1.07843E+02 2.67144E+01 0.00000E+00
 -1       142 1.06562E+02 2.61317E+01 0.00000E+00
 -1       143 1.05082E+02 2.58043E+01 0.00000E+00
 -1       144 1.03713E+02 2.57890E+01 0.00000E+00
 -1       145 1.02247E+02 2.60764E+01 0.00000E+00
 -1       146 1.00870E+02 2.66715E+01 0.00000E+00
 -1       147 9.96688E+01 2.75307E+01 0.00000E+00
 -1       148 9.86904E+01 2.86015E+01 0.00000E+00
 -1       149 9.79218E+01 2.99214E+01 0.00000E+00
 -1       150 9.74895E+01 3.12281E+01 0.00000E+00
 -1       151 9.73201E+01 3.26520E+01 0.00000E+00
 -1       152 9.74566E+01 3.41427E+01 0.00000E+00
 -1       153 9.85663E+01 3.67506E+01 0.00000E+00
 -1       154 9.95985E+01 3.79313E+01 0.00000E+00
 -1       155 1.00800E+02 3.88137E+01 0.00000E+00
 -1       156 1.02211E+02 3.94378E+01 0.00000E+00
 -1       157 1.03633E+02 3.97289E+01 0.00000E+00
 -1       158 1.05044E+02 3.97250E+01 0.00000E+00
 -1       159 1.06443E+02 3.94328E+01 0.00000E+00
 -1       160 1.07834E+02 3.88166E+01 0.00000E+00
 -1       161 1.08996E+02 3.79713E+01 0.00000E+00
 -1       162 1.10042E+02 3.67939E+01 0.00000E+00
 -1       163 1.10749E+02 3.55292E+01 0.00000E+00
 -1       164 1.11177E+02 3.41690E+01 0.00000E+00
 -1       165 2.59800E+00 4.55750E+01 0.00000E+00
 -1       166 2.59800E+00 4.26250E+01 0.00000E+00
 -1       167 2.59800E+00 3.96750E+01 0.00000E+00
 -1       168 2.59800E+00 3.67250E+01 0.00000E+00
 -1       169 2.59800E+00 3.38250E+01 0.00000E+00
 -1       170 2.59800E+00 3.08750E+01 0.00000E+00
 -1       171 2.59800E+00 2.79250E+01 0.00000E+00
 -1       172 2.59800E+00 2.49750E+01 0.00000E+00
 -1       173 2.59800E+00 2.20250E+01 0.00000E+00
 -1       174 2.59800E+00 1.90750E+01 0.00000E+00
 -1       175 2.59800E+00 1.61750E+01 0.00000E+00
 -1       176 2.59800E+00 1.32250E+01 0.00000E+00
 -1       177 2.59800E+00 1.02750E+01 0.00000E+00
 -1       178 2.59800E+00 7.32500E+00 0.00000E+00
 -1       179 2.59800E+00 4.37500E+00 0.00000E+00
 -1       180 2.87400E+00 2.18750E+00 0.00000E+00
 -1       181 4.65000E+00 4.74020E+01 0.00000E+00
 -1       182 7.65000E+00 4.74020E+01 0.00000E+00
 -1       183 1.06500E+01 4.74020E+01 0.00000E+00
 -1       184 1.36500E+01 4.74020E+01 0.00000E+00
 -1       185 1.66500E+01 4.74020E+01 0.00000E+00
 -1       186 1.96500E+01 4.74020E+01 0.00000E+00
 -1       187 2.26500E+01 4.74020E+01 0.00000E+00
 -1       188 2.56500E+01 4.74020E+01 0.00000E+00
 -1       189 2.86500E+01 4.74020E+01 0.00000E+00
 -1       190 3.16500E+01 4.74020E+01 0.00000E+00
 -1       191 3.46500E+01 4.74020E+01 0.00000E+00
 -1       192 3.76500E+01 4.74020E+01 0.00000E+00
 -1       193 4.06500E+01 4.74020E+01 0.00000E+00
 -1       194 4.36500E+01 4.74020E+01 0.00000E+00
 -1       195 4.66500E+01 4.74020E+01 0.00000E+00
 -1       196 4.96500E+01 4.74020E+01 0.00000E+00
 -1       197 5.26500E+01 4.74020E+01 0.00000E+00
 -1       198 5.56500E+01 4.74020E+01 0.00000E+00
 -1       199 5.86500E+01 4.74020E+01 0.00000E+00
 -1       200 6.16500E+01 4.74020E+01 0.00000E+00
 -1       201 6.46500E+01 4.74020E+01 0.00000E+00
 -1       202 6.76500E+01 4.74020E+01 0.00000E+00
 -1       203 7.06500E+01 4.74020E+01 0.00000E+00
 -1       204 7.36500E+01 4.74020E+01 0.00000E+00
 -1       205 7.66500E+01 4.74020E+01 0.00000E+00
 -1       206 7.96500E+01 4.74020E+01 0.00000E+00
 -1       207 8.26500E+01 4.74020E+01 0.00000E+00
 -1       208 8.56500E+01 4.74020E+01 0.00000E+00
 -1       209 8.86500E+01 4.74020E+01 0.00000E+00
 -1       210 9.18000E+01 4.74020E+01 0.00000E+00
 -1       211 9.48000E+01 4.74020E+01 0.00000E+00
 -1       212 9.78000E+01 4.74020E+01 0.00000E+00
 -1       213 1.00800E+02 4.74020E+01 0.00000E+00
 -1       214 1.03650E+02 4.74020E+01 0.00000E+00
 -1       215 1.06650E+02 4.74020E+01 0.00000E+00
 -1       216 1.09500E+02 4.74020E+01 0.00000E+00
 -1       217 1.12500E+02 4.74020E+01 0.00000E+00
 -1       218 1.15500E+02 4.74020E+01 0.00000E+00
 -1       219 1.18500E+02 4.74020E+01 0.00000E+00
 -1       220 1.21500E+02 4.74020E+01 0.00000E+00
 -1       221 1.24500E+02 4.74020E+01 0.00000E+00
 -1       222 1.27500E+02 4.74020E+01 0.00000E+00
 -1       223 1.30500E+02 4.74020E+01 0.00000E+00
 -1       224 1.33500E+02 4.74020E+01 0.00000E+00
 -1       225 1.36500E+02 4.74020E+01 0.00000E+00
 -1       226 1.39500E+02 4.74020E+01 0.00000E+00
 -1       227 1.42500E+02 4.74020E+01 0.00000E+00
 -1       228 1.45500E+02 4.74020E+01 0.00000E+00
 -1       229 1.47750E+02 4.72510E+01 0.00000E+00
 -1       230 5.87400E+00 2.18750E+00 0.00000E+00
 -1       231 8.87400E+00 2.18750E+00 0.00000E+00
 -1       232 1.18740E+01 2.18750E+00 0.00000E+00
 -1       233 1.48740E+01 2.18750E+00 0.00000E+00
 -1       234 1.78740E+01 2.18750E+00 0.00000E+00
 -1       235 2.08740E+01 2.18750E+00 0.00000E+00
 -1       236 2.38740E+01 2.18750E+00 0.00000E+00
 -1       237 2.68740E+01 2.18750E+00 0.00000E+00
 -1       238 2.98740E+01 2.18750E+00 0.00000E+00
 -1       239 3.28740E+01 2.18750E+00 0.00000E+00
 -1       240 3.58740E+01 2.18750E+00 0.00000E+00
 -1       241 3.88740E+01 2.18750E+00 0.00000E+00
 -1       242 4.18740E+01 2.18750E+00 0.00000E+00
 -1       243 4.48740E+01 2.18750E+00 0.00000E+00
 -1       244 4.78740E+01 2.18750E+00 0.00000E+00
 -1       245 5.08740E+01 2.18750E+00 0.00000E+00
 -1       246 5.38740E+01 2.18750E+00 0.00000E+00
 -1       247 5.68740E+01 2.18750E+00 0.00000E+00
 -1       248 5.98740E+01 2.18750E+00 0.00000E+00
 -1       249 6.28740E+01 2.18750E+00 0.00000E+00
 -1       250 6.58740E+01 2.18750E+00 0.00000E+00
 -1       251 6.88740E+01 2.18750E+00 0.00000E+00
 -1       252 7.18740E+01 2.18750E+00 0.00000E+00
 -1       253 7.48740E+01 2.18750E+00 0.00000E+00
 -1       254 7.78740E+01 2.18750E+00 0.00000E+00
 -1       255 8.08740E+01 2.18750E+00 0.00000E+00
 -1       256 8.38740E+01 2.18750E+00 0.00000E+00
 -1       257 8.68740E+01 2.18750E+00 0.00000E+00
 -1       258 8.98740E+01 2.18750E+00 0.00000E+00
 -1       259 9.28740E+01 2.18750E+00 0.00000E+00
 -1       260 9.58740E+01 2.18750E+00 0.00000E+00
 -1       261 9.88740E+01 2.18750E+00 0.00000E+00
 -1       262 1.01874E+02 2.18750E+00 0.00000E+00
 -1       263 1.04874E+02 2.18750E+00 0.00000E+00
 -1       264 1.07874E+02 2.18750E+00 0.00000E+00
 -1       265 1.10874E+02 2.18750E+00 0.00000E+00
 -1       266 1.13874E+02 2.18750E+00 0.00000E+00
 -1       267 1.16874E+02 2.18750E+00 0.00000E+00
 -1       268 1.19874E+02 2.18750E+00 0.00000E+00
 -1       269 1.22874E+02 2.18750E+00 0.00000E+00
 -1       270 1.25874E+02 2.18750E+00 0.00000E+00
 -1       271 1.28874E+02 2.18750E+00 0.00000E+00
 -1       272 1.31874E+02 2.18750E+00 0.00000E+00
 -1       273 1.34874E+02 2.18750E+00 0.00000E+00
 -1       274 1.37874E+02 2.18750E+00 0.00000E+00
 -1       275 1.40874E+02 2.18750E+00 0.00000E+00
 -1       276 1.43874E+02 2.18750E+00 0.00000E+00
 -1       277 1.46874E+02 2.18750E+00 0.00000E+00
 -1       278 1.47402E+02 4.42500E+00 0.00000E+00
 -1       279 1.47402E+02 7.37500E+00 0.00000E+00
 -1       280 1.47402E+02 1.03250E+01 0.00000E+00
 -1       281 1.47402E+02 1.32750E+01 0.00000E+00
 -1       282 1.47402E+02 1.61750E+01 0.00000E+00
 -1       283 1.47402E+02 1.91250E+01 0.00000E+00
 -1       284 1.47402E+02 2.20750E+01 0.00000E+00
 -1       285 1.47402E+02 2.50250E+01 0.00000E+00
 -1       286 1.47402E+02 2.79750E+01 0.00000E+00
 -1       287 1.47402E+02 3.09250E+01 0.00000E+00
 -1       288 1.47402E+02 3.38250E+01 0.00000E+00
 -1       289 1.47402E+02 3.67750E+01 0.00000E+00
 -1       290 1.47402E+02 3.97250E+01 0.00000E+00
 -1       291 1.47402E+02 4.26750E+01 0.00000E+00
 -1       292 1.47576E+02 4.49630E+01 0.00000E+00
 -1       293 1.12535E+02 3.19175E+01 0.00000E+00
 -1       294 1.12189E+02 3.02584E+01 0.00000E+00
 -1       295 1.11506E+02 2.86942E+01 0.00000E+00
 -1       296 1.10557E+02 2.72262E+01 0.00000E+00
 -1       297 1.09203E+02 2.61041E+01 0.00000E+00
 -1       298 1.07705E+02 2.53194E+01 0.00000E+00
 -1       299 1.06120E+02 2.46206E+01 0.00000E+00
 -1       300 1.04411E+02 2.45843E+01 0.00000E+00
 -1       301 1.02730E+02 2.46607E+01 0.00000E+00
 -1       302 1.01078E+02 2.52611E+01 0.00000E+00
 -1       303 9.94665E+01 2.59788E+01 0.00000E+00
 -1       304 9.82846E+01 2.72482E+01 0.00000E+00
 -1       305 9.71136E+01 2.85670E+01 0.00000E+00
 -1       306 9.65546E+01 3.01940E+01 0.00000E+00
 -1       307 9.61177E+01 3.17870E+01 0.00000E+00
 -1       308 9.60142E+01 3.35232E+01 0.00000E+00
 -1       309 9.64976E+01 3.51530E+01 0.00000E+00
 -1       310 9.71482E+01 3.66843E+01 0.00000E+00
 -1       311 9.80435E+01 3.82492E+01 0.00000E+00
 -1       312 9.94816E+01 3.93497E+01 0.00000E+00
 -1       313 1.00948E+02 4.03878E+01 0.00000E+00
 -1       314 1.02679E+02 4.07711E+01 0.00000E+00
 -1       315 1.04342E+02 4.09394E+01 0.00000E+00
 -1       316 1.05992E+02 4.07657E+01 0.00000E+00
 -1       317 1.07663E+02 4.03098E+01 0.00000E+00
 -1       318 1.09128E+02 3.93745E+01 0.00000E+00
 -1       319 1.10550E+02 3.82992E+01 0.00000E+00
 -1       320 1.11454E+02 3.67534E+01 0.00000E+00
 -1       321 1.12120E+02 3.52124E+01 0.00000E+00
 -1       322 1.12454E+02 3.35883E+01 0.00000E+00
 -1       323 5.19600E+00 4.11500E+01 0.00000E+00
 -1       324 5.19600E+00 4.41000E+01 0.00000E+00
 -1       325 5.19600E+00 3.52750E+01 0.00000E+00
 -1       326 5.19600E+00 3.23250E+01 0.00000E+00
 -1       327 5.19600E+00 2.93750E+01 0.00000E+00
 -1       328 5.19600E+00 2.64250E+01 0.00000E+00
 -1       329 5.19600E+00 2.34750E+01 0.00000E+00
 -1       330 5.19600E+00 2.05250E+01 0.00000E+00
 -1       331 5.19600E+00 1.76250E+01 0.00000E+00
 -1       332 5.19600E+00 1.46750E+01 0.00000E+00
 -1       333 5.19600E+00 1.17250E+01 0.00000E+00
 -1       334 5.19600E+00 8.77500E+00 0.00000E+00
 -1       335 5.19600E+00 5.82500E+00 0.00000E+00
 -1       336 5.53500E+00 4.00625E+00 0.00000E+00
 -1       337 8.53500E+00 4.00625E+00 0.00000E+00
 -1       338 9.15000E+00 4.48040E+01 0.00000E+00
 -1       339 1.21500E+01 4.48040E+01 0.00000E+00
 -1       340 1.51500E+01 4.48040E+01 0.00000E+00
 -1       341 1.81500E+01 4.48040E+01 0.00000E+00
 -1       342 2.11500E+01 4.48040E+01 0.00000E+00
 -1       343 2.41500E+01 4.48040E+01 0.00000E+00
 -1       344 2.71500E+01 4.48040E+01 0.00000E+00
 -1       345 3.01500E+01 4.48040E+01 0.00000E+00
 -1       346 3.31500E+01 4.48040E+01 0.00000E+00
 -1       347 3.61500E+01 4.48040E+01 0.00000E+00
 -1       348 3.91500E+01 4.48040E+01 0.00000E+00
 -1       349 4.21500E+01 4.48040E+01 0.00000E+00
 -1       350 4.51500E+01 4.48040E+01 0.00000E+00
 -1       351 4.81500E+01 4.48040E+01 0.00000E+00
 -1       352 5.11500E+01 4.48040E+01 0.00000E+00
 -1       353 5.41500E+01 4.48040E+01 0.00000E+00
 -1       354 5.71500E+01 4.48040E+01 0.00000E+00
 -1       355 6.01500E+01 4.48040E+01 0.00000E+00
 -1       356 6.31500E+01 4.48040E+01 0.00000E+00
 -1       357 6.61500E+01 4.48040E+01 0.00000E+00
 -1       358 6.91500E+01 4.48040E+01 0.00000E+00
 -1       359 7.21500E+01 4.48040E+01 0.00000E+00
 -1       360 7.51500E+01 4.48040E+01 0.00000E+00
 -1       361 7.81500E+01 4.48040E+01 0.00000E+00
 -1       362 8.11500E+01 4.48040E+01 0.00000E+00
 -1       363 8.41500E+01 4.48040E+01 0.00000E+00
 -1       364 8.71500E+01 4.48040E+01 0.00000E+00
 -1       365 9.03000E+01 4.48040E+01 0.00000E+00
 -1       366 9.33000E+01 4.48040E+01 0.00000E+00
 -1       367 9.63000E+01 4.48040E+01 0.00000E+00
 -1       368 9.93000E+01 4.48040E+01 0.00000E+00
 -1       369 1.02150E+02 4.48040E+01 0.00000E+00
 -1       370 1.05150E+02 4.48040E+01 0.00000E+00
 -1       371 1.08000E+02 4.48040E+01 0.00000E+00
 -1       372 1.11000E+02 4.48040E+01 0.00000E+00
 -1       373 1.14000E+02 4.48040E+01 0.00000E+00
 -1       374 1.17000E+02 4.48040E+01 0.00000E+00
 -1       375 1.20000E+02 4.48040E+01 0.00000E+00
 -1       376 1.23000E+02 4.48040E+01 0.00000E+00
 -1       377 1.26000E+02 4.48040E+01 0.00000E+00
 -1       378 1.29000E+02 4.48040E+01 0.00000E+00
 -1       379 1.32000E+02 4.48040E+01 0.00000E+00
 -1       380 1.35000E+02 4.48040E+01 0.00000E+00
 -1       381 1.38000E+02 4.48040E+01 0.00000E+00
 -1       382 1.41000E+02 4.48040E+01 0.00000E+00
 -1       383 1.44000E+02 4.48040E+01 0.00000E+00
 -1       384 1.33740E+01 4.78550E+00 0.00000E+00
 -1       385 1.63740E+01 4.78550E+00 0.00000E+00
 -1       386 1.93740E+01 4.78550E+00 0.00000E+00
 -1       387 2.23740E+01 4.78550E+00 0.00000E+00
 -1       388 2.53740E+01 4.78550E+00 0.00000E+00
 -1       389 2.83740E+01 4.78550E+00 0.00000E+00
 -1       390 3.13740E+01 4.78550E+00 0.00000E+00
 -1       391 3.43740E+01 4.78550E+00 0.00000E+00
 -1       392 3.73740E+01 4.78550E+00 0.00000E+00
 -1       393 4.03740E+01 4.78550E+00 0.00000E+00
 -1       394 4.33740E+01 4.78550E+00 0.00000E+00
 -1       395 4.63740E+01 4.78550E+00 0.00000E+00
 -1       396 4.93740E+01 4.78550E+00 0.00000E+00
 -1       397 5.23740E+01 4.78550E+00 0.00000E+00
 -1       398 5.53740E+01 4.78550E+00 0.00000E+00
 -1       399 5.83740E+01 4.78550E+00 0.00000E+00
 -1       400 6.13740E+01 4.78550E+00 0.00000E+00
 -1       401 6.43740E+01 4.78550E+00 0.00000E+00
 -1       402 6.73740E+01 4.78550E+00 0.00000E+00
 -1       403 7.03740E+01 4.78550E+00 0.00000E+00
 -1       404 7.33740E+01 4.78550E+00 0.00000E+00
 -1       405 7.63740E+01 4.78550E+00 0.00000E+00
 -1       406 7.93740E+01 4.78550E+00 0.00000E+00
 -1       407 8.23740E+01 4.78550E+00 0.00000E+00
 -1       408 8.53740E+01 4.78550E+00 0.00000E+00
 -1       409 8.83740E+01 4.78550E+00 0.00000E+00
 -1       410 9.13740E+01 4.78550E+00 0.00000E+00
 -1       411 9.43740E+01 4.78550E+00 0.00000E+00
 -1       412 9.73740E+01 4.78550E+00 0.00000E+00
 -1       413 1.00374E+02 4.78550E+00 0.00000E+00
 -1       414 1.03374E+02 4.78550E+00 0.00000E+00
 -1       415 1.06374E+02 4.78550E+00 0.00000E+00
 -1       416 1.09374E+02 4.78550E+00 0.00000E+00
 -1       417 1.12374E+02 4.78550E+00 0.00000E+00
 -1       418 1.15374E+02 4.78550E+00 0.00000E+00
 -1       419 1.18374E+02 4.78550E+00 0.00000E+00
 -1       420 1.21374E+02 4.78550E+00 0.00000E+00
 -1       421 1.24374E+02 4.78550E+00 0.00000E+00
 -1       422 1.27374E+02 4.78550E+00 0.00000E+00
 -1       423 1.30374E+02 4.78550E+00 0.00000E+00
 -1       424 1.33374E+02 4.78550E+00 0.00000E+00
 -1       425 1.36374E+02 4.78550E+00 0.00000E+00
 -1       426 1.39374E+02 4.78550E+00 0.00000E+00
 -1       427 1.42374E+02 4.78550E+00 0.00000E+00
 -1       428 1.44888E+02 4.60525E+00 0.00000E+00
 -1       429 1.44804E+02 1.18000E+01 0.00000E+00
 -1       430 1.44804E+02 8.85000E+00 0.00000E+00
 -1       431 1.44804E+02 1.47000E+01 0.00000E+00
 -1       432 1.44804E+02 1.76500E+01 0.00000E+00
 -1       433 1.44804E+02 2.06000E+01 0.00000E+00
 -1       434 1.44804E+02 2.35500E+01 0.00000E+00
 -1       435 1.44804E+02 2.65000E+01 0.00000E+00
 -1       436 1.44804E+02 2.94500E+01 0.00000E+00
 -1       437 1.44804E+02 3.23500E+01 0.00000E+00
 -1       438 1.44804E+02 3.53000E+01 0.00000E+00
 -1       439 1.44804E+02 3.82500E+01 0.00000E+00
 -1       440 1.44804E+02 4.12000E+01 0.00000E+00
 -1       441 1.09545E+01 4.39587E+00 0.00000E+00
 -1       442 1.13189E+02 2.88901E+01 0.00000E+00
 -1       443 1.10760E+02 2.56027E+01 0.00000E+00
 -1       444 1.14208E+02 3.28362E+01 0.00000E+00
 -1       445 1.12190E+02 2.72108E+01 0.00000E+00
 -1       446 5.19600E+00 3.82125E+01 0.00000E+00
 -1       447 1.09211E+02 2.42666E+01 0.00000E+00
 -1       448 1.07626E+02 2.35678E+01 0.00000E+00
 -1       449 1.05298E+02 2.30553E+01 0.00000E+00
 -1       450 1.03618E+02 2.31317E+01 0.00000E+00
 -1       451 1.01319E+02 2.33488E+01 0.00000E+00
 -1       452 9.97075E+01 2.40665E+01 0.00000E+00
 -1       453 9.78655E+01 2.56732E+01 0.00000E+00
 -1       454 9.66945E+01 2.69920E+01 0.00000E+00
 -1       455 9.53705E+01 2.88777E+01 0.00000E+00
 -1       456 9.49336E+01 3.04707E+01 0.00000E+00
 -1       457 9.46884E+01 3.25729E+01 0.00000E+00
 -1       458 9.50132E+01 3.47067E+01 0.00000E+00
 -1       459 9.55528E+01 3.64582E+01 0.00000E+00
 -1       460 9.62526E+01 3.82352E+01 0.00000E+00
 -1       461 9.76184E+01 4.02946E+01 0.00000E+00
 -1       462 9.90845E+01 4.13328E+01 0.00000E+00
 -1       463 1.01479E+02 4.20904E+01 0.00000E+00
 -1       464 1.03142E+02 4.22587E+01 0.00000E+00
 -1       465 1.05329E+02 4.23916E+01 0.00000E+00
 -1       466 1.07000E+02 4.19356E+01 0.00000E+00
 -1       467 1.09274E+02 4.12170E+01 0.00000E+00
 -1       468 1.10696E+02 4.01417E+01 0.00000E+00
 -1       469 1.12194E+02 3.82225E+01 0.00000E+00
 -1       470 1.13053E+02 3.65302E+01 0.00000E+00
 -1       471 1.13873E+02 3.44603E+01 0.00000E+00
 -1       472 1.13631E+02 3.08234E+01 0.00000E+00
 -1       473 7.79400E+00 3.08500E+01 0.00000E+00
 -1       474 7.79400E+00 3.38000E+01 0.00000E+00
 -1       475 7.79400E+00 2.49500E+01 0.00000E+00
 -1       476 7.79400E+00 2.20000E+01 0.00000E+00
 -1       477 7.79400E+00 1.91000E+01 0.00000E+00
 -1       478 7.79400E+00 1.61500E+01 0.00000E+00
 -1       479 7.79400E+00 1.32000E+01 0.00000E+00
 -1       480 7.79400E+00 1.02500E+01 0.00000E+00
 -1       481 7.79400E+00 7.30000E+00 0.00000E+00
 -1       482 8.16450E+00 5.65312E+00 0.00000E+00
 -1       483 1.06500E+01 4.22060E+01 0.00000E+00
 -1       484 1.14308E+02 2.70880E+01 0.00000E+00
 -1       485 1.13007E+02 2.50445E+01 0.00000E+00
 -1       486 1.36500E+01 4.22060E+01 0.00000E+00
 -1       487 1.66500E+01 4.22060E+01 0.00000E+00
 -1       488 1.96500E+01 4.22060E+01 0.00000E+00
 -1       489 2.26500E+01 4.22060E+01 0.00000E+00
 -1       490 2.56500E+01 4.22060E+01 0.00000E+00
 -1       491 2.86500E+01 4.22060E+01 0.00000E+00
 -1       492 3.16500E+01 4.22060E+01 0.00000E+00
 -1       493 3.46500E+01 4.22060E+01 0.00000E+00
 -1       494 3.76500E+01 4.22060E+01 0.00000E+00
 -1       495 4.06500E+01 4.22060E+01 0.00000E+00
 -1       496 4.36500E+01 4.22060E+01 0.00000E+00
 -1       497 4.66500E+01 4.22060E+01 0.00000E+00
 -1       498 4.96500E+01 4.22060E+01 0.00000E+00
 -1       499 5.26500E+01 4.22060E+01 0.00000E+00
 -1       500 5.56500E+01 4.22060E+01 0.00000E+00
 -1       501 5.86500E+01 4.22060E+01 0.00000E+00
 -1       502 6.16500E+01 4.22060E+01 0.00000E+00
 -1       503 6.46500E+01 4.22060E+01 0.00000E+00
 -1       504 6.76500E+01 4.22060E+01 0.00000E+00
 -1       505 7.06500E+01 4.22060E+01 0.00000E+00
 -1       506 7.36500E+01 4.22060E+01 0.00000E+00
 -1       507 7.66500E+01 4.22060E+01 0.00000E+00
 -1       508 7.96500E+01 4.22060E+01 0.00000E+00
 -1       509 8.26500E+01 4.22060E+01 0.00000E+00
 -1       510 8.56500E+01 4.22060E+01 0.00000E+00
 -1       511 8.88000E+01 4.22060E+01 0.00000E+00
 -1       512 9.18000E+01 4.22060E+01 0.00000E+00
 -1       513 9.48000E+01 4.22060E+01 0.00000E+00
 -1       514 1.12500E+02 4.25862E+01 0.00000E+00
 -1       515 1.15500E+02 4.25862E+01 0.00000E+00
 -1       516 1.18500E+02 4.25862E+01 0.00000E+00
 -1       517 1.21500E+02 4.25862E+01 0.00000E+00
 -1       518 1.24500E+02 4.25862E+01 0.00000E+00
 -1       519 1.27500E+02 4.25862E+01 0.00000E+00
 -1       520 1.30500E+02 4.25862E+01 0.00000E+00
 -1       521 1.33500E+02 4.25862E+01 0.00000E+00
 -1       522 1.36500E+02 4.25862E+01 0.00000E+00
 -1       523 1.39500E+02 4.25862E+01 0.00000E+00
 -1       524 1.42152E+02 4.18931E+01 0.00000E+00
 -1       525 2.08740E+01 7.38350E+00 0.00000E+00
 -1       526 1.78740E+01 7.38350E+00 0.00000E+00
 -1       527 1.48740E+01 7.38350E+00 0.00000E+00
 -1       528 2.38740E+01 7.38350E+00 0.00000E+00
 -1       529 2.68740E+01 7.38350E+00 0.00000E+00
 -1       530 2.98740E+01 7.38350E+00 0.00000E+00
 -1       531 3.28740E+01 7.38350E+00 0.00000E+00
 -1       532 3.58740E+01 7.38350E+00 0.00000E+00
 -1       533 3.88740E+01 7.38350E+00 0.00000E+00
 -1       534 4.18740E+01 7.38350E+00 0.00000E+00
 -1       535 4.48740E+01 7.38350E+00 0.00000E+00
 -1       536 4.78740E+01 7.38350E+00 0.00000E+00
 -1       537 5.08740E+01 7.38350E+00 0.00000E+00
 -1       538 5.38740E+01 7.38350E+00 0.00000E+00
 -1       539 5.68740E+01 7.38350E+00 0.00000E+00
 -1       540 5.98740E+01 7.38350E+00 0.00000E+00
 -1       541 6.28740E+01 7.38350E+00 0.00000E+00
 -1       542 6.58740E+01 7.38350E+00 0.00000E+00
 -1       543 6.88740E+01 7.38350E+00 0.00000E+00
 -1       544 7.18740E+01 7.38350E+00 0.00000E+00
 -1       545 7.48740E+01 7.38350E+00 0.00000E+00
 -1       546 7.78740E+01 7.38350E+00 0.00000E+00
 -1       547 8.08740E+01 7.38350E+00 0.00000E+00
 -1       548 8.38740E+01 7.38350E+00 0.00000E+00
 -1       549 8.68740E+01 7.38350E+00 0.00000E+00
 -1       550 8.98740E+01 7.38350E+00 0.00000E+00
 -1       551 9.28740E+01 7.38350E+00 0.00000E+00
 -1       552 9.58740E+01 7.38350E+00 0.00000E+00
 -1       553 9.88740E+01 7.38350E+00 0.00000E+00
 -1       554 1.01874E+02 7.38350E+00 0.00000E+00
 -1       555 1.04874E+02 7.38350E+00 0.00000E+00
 -1       556 1.07874E+02 7.38350E+00 0.00000E+00
 -1       557 1.10874E+02 7.38350E+00 0.00000E+00
 -1       558 1.13874E+02 7.38350E+00 0.00000E+00
 -1       559 1.16874E+02 7.38350E+00 0.00000E+00
 -1       560 1.19874E+02 7.38350E+00 0.00000E+00
 -1       561 1.22874E+02 7.38350E+00 0.00000E+00
 -1       562 1.25874E+02 7.38350E+00 0.00000E+00
 -1       563 1.28874E+02 7.38350E+00 0.00000E+00
 -1       564 1.31874E+02 7.38350E+00 0.00000E+00
 -1       565 1.34874E+02 7.38350E+00 0.00000E+00
 -1       566 1.37874E+02 7.38350E+00 0.00000E+00
 -1       567 1.40874E+02 7.38350E+00 0.00000E+00
 -1       568 1.42206E+02 1.61750E+01 0.00000E+00
 -1       569 1.42206E+02 1.32750E+01 0.00000E+00
 -1       570 1.42206E+02 1.03250E+01 0.00000E+00
 -1       571 1.15488E+02 3.13806E+01 0.00000E+00
 -1       572 1.42206E+02 1.91250E+01 0.00000E+00
 -1       573 1.42206E+02 2.20750E+01 0.00000E+00
 -1       574 1.42206E+02 2.50250E+01 0.00000E+00
 -1       575 1.42206E+02 2.79750E+01 0.00000E+00
 -1       576 1.42206E+02 3.08750E+01 0.00000E+00
 -1       577 1.42206E+02 3.38250E+01 0.00000E+00
 -1       578 1.42206E+02 3.67750E+01 0.00000E+00
 -1       579 1.42179E+02 3.93340E+01 0.00000E+00
 -1       580 1.14980E+02 3.60960E+01 0.00000E+00
 -1       581 7.92300E+00 4.16780E+01 0.00000E+00
 -1       582 1.10996E+02 2.37625E+01 0.00000E+00
 -1       583 1.15474E+02 3.39435E+01 0.00000E+00