    1C
    1UUSER                                                              
    1UDATE              27.october.2022                                 
    1UTIME              01:09:30                                        
    1UHOST                                                              
    1UPGM               CalculiX                                        
    1UVERSION           Version 2.17                             
    1UCOMPILETIME       Thu Jul 23 21:43:50 CEST 2020                    
    1UDIR                                                               
    1UDBN                                                               
    1UMAT    1SOLIDMATERIAL                                             
    2C                          4241                                     1
 -1         1 1.11761E+02 4.08660E+01 0.00000E+00
 -1         2 1.19292E+02 3.38861E+01 0.00000E+00
 -1         3 1.50000E+02 0.00000E+00 0.00000E+00
 -1         4 1.50000E+02 5.00000E+01 0.00000E+00
 -1         5 0.00000E+00 0.00000E+00 0.00000E+00
 -1         6 0.00000E+00 5.00000E+01 0.00000E+00
 -1         7 0.00000E+00 4.70500E+01 0.00000E+00
 -1         8 0.00000E+00 4.41000E+01 0.00000E+00
 -1         9 0.00000E+00 4.11500E+01 0.00000E+00
 -1        10 0.00000E+00 3.82000E+01 0.00000E+00
 -1        11 0.00000E+00 3.52500E+01 0.00000E+00
 -1        12 0.00000E+00 3.23500E+01 0.00000E+00
 -1        13 0.00000E+00 2.94000E+01 0.00000E+00
 -1        14 0.00000E+00 2.64500E+01 0.00000E+00
 -1        15 0.00000E+00 2.35000E+01 0.00000E+00
 -1        16 0.00000E+00 2.05500E+01 0.00000E+00
 -1        17 0.00000E+00 1.76000E+01 0.00000E+00
 -1        18 0.00000E+00 1.47000E+01 0.00000E+00
 -1        19 0.00000E+00 1.17500E+01 0.00000E+00
 -1        20 0.00000E+00 8.80000E+00 0.00000E+00
 -1        21 0.00000E+00 5.85000E+00 0.00000E+00
 -1        22 0.00000E+00 2.90000E+00 0.00000E+00
 -1        23 3.15000E+00 5.00000E+01 0.00000E+00
 -1        24 6.15000E+00 5.00000E+01 0.00000E+00
 -1        25 9.15000E+00 5.00000E+01 0.00000E+00
 -1        26 1.21500E+01 5.00000E+01 0.00000E+00
 -1        27 1.51500E+01 5.00000E+01 0.00000E+00
 -1        28 1.81500E+01 5.00000E+01 0.00000E+00
 -1        29 2.11500E+01 5.00000E+01 0.00000E+00
 -1        30 2.41500E+01 5.00000E+01 0.00000E+00
 -1        31 2.71500E+01 5.00000E+01 0.00000E+00
 -1        32 3.01500E+01 5.00000E+01 0.00000E+00
 -1        33 3.31500E+01 5.00000E+01 0.00000E+00
 -1        34 3.61500E+01 5.00000E+01 0.00000E+00
 -1        35 3.91500E+01 5.00000E+01 0.00000E+00
 -1        36 4.21500E+01 5.00000E+01 0.00000E+00
 -1        37 4.51500E+01 5.00000E+01 0.00000E+00
 -1        38 4.81500E+01 5.00000E+01 0.00000E+00
 -1        39 5.11500E+01 5.00000E+01 0.00000E+00
 -1        40 5.41500E+01 5.00000E+01 0.00000E+00
 -1        41 5.71500E+01 5.00000E+01 0.00000E+00
 -1        42 6.01500E+01 5.00000E+01 0.00000E+00
 -1        43 6.31500E+01 5.00000E+01 0.00000E+00
 -1        44 6.61500E+01 5.00000E+01 0.00000E+00
 -1        45 6.91500E+01 5.00000E+01 0.00000E+00
 -1        46 7.21500E+01 5.00000E+01 0.00000E+00
 -1        47 7.51500E+01 5.00000E+01 0.00000E+00
 -1        48 7.81500E+01 5.00000E+01 0.00000E+00
 -1        49 8.11500E+01 5.00000E+01 0.00000E+00
 -1        50 8.41500E+01 5.00000E+01 0.00000E+00
 -1        51 8.71500E+01 5.00000E+01 0.00000E+00
 -1        52 9.01500E+01 5.00000E+01 0.00000E+00
 -1        53 9.31500E+01 5.00000E+01 0.00000E+00
 -1        54 9.61500E+01 5.00000E+01 0.00000E+00
 -1        55 9.91500E+01 5.00000E+01 0.00000E+00
 -1        56 1.02150E+02 5.00000E+01 0.00000E+00
 -1        57 1.05150E+02 5.00000E+01 0.00000E+00
 -1        58 1.08150E+02 5.00000E+01 0.00000E+00
 -1        59 1.11150E+02 5.00000E+01 0.00000E+00
 -1        60 1.14000E+02 5.00000E+01 0.00000E+00
 -1        61 1.17000E+02 5.00000E+01 0.00000E+00
 -1        62 1.20000E+02 5.00000E+01 0.00000E+00
 -1        63 1.23000E+02 5.00000E+01 0.00000E+00
 -1        64 1.26000E+02 5.00000E+01 0.00000E+00
 -1        65 1.29000E+02 5.00000E+01 0.00000E+00
 -1        66 1.32000E+02 5.00000E+01 0.00000E+00
 -1        67 1.35000E+02 5.00000E+01 0.00000E+00
 -1        68 1.38000E+02 5.00000E+01 0.00000E+00
 -1        69 1.41000E+02 5.00000E+01 0.00000E+00
 -1        70 1.44000E+02 5.00000E+01 0.00000E+00
 -1        71 1.47000E+02 5.00000E+01 0.00000E+00
 -1        72 3.15000E+00 0.00000E+00 0.00000E+00
 -1        73 6.15000E+00 0.00000E+00 0.00000E+00
 -1        74 9.15000E+00 0.00000E+00 0.00000E+00
 -1        75 1.21500E+01 0.00000E+00 0.00000E+00
 -1        76 1.51500E+01 0.00000E+00 0.00000E+00
 -1        77 1.81500E+01 0.00000E+00 0.00000E+00
 -1        78 2.11500E+01 0.00000E+00 0.00000E+00
 -1        79 2.41500E+01 0.00000E+00 0.00000E+00
 -1        80 2.71500E+01 0.00000E+00 0.00000E+00
 -1        81 3.01500E+01 0.00000E+00 0.00000E+00
 -1        82 3.31500E+01 0.00000E+00 0.00000E+00
 -1        83 3.61500E+01 0.00000E+00 0.00000E+00
 -1        84 3.91500E+01 0.00000E+00 0.00000E+00
 -1        85 4.21500E+01 0.00000E+00 0.00000E+00
 -1        86 4.51500E+01 0.00000E+00 0.00000E+00
 -1        87 4.81500E+01 0.00000E+00 0.00000E+00
 -1        88 5.11500E+01 0.00000E+00 0.00000E+00
 -1        89 5.41500E+01 0.00000E+00 0.00000E+00
 -1        90 5.71500E+01 0.00000E+00 0.00000E+00
 -1        91 6.01500E+01 0.00000E+00 0.00000E+00
 -1        92 6.31500E+01 0.00000E+00 0.00000E+00
 -1        93 6.61500E+01 0.00000E+00 0.00000E+00
 -1        94 6.91500E+01 0.00000E+00 0.00000E+00
 -1        95 7.21500E+01 0.00000E+00 0.00000E+00
 -1        96 7.51500E+01 0.00000E+00 0.00000E+00
 -1        97 7.81500E+01 0.00000E+00 0.00000E+00
 -1        98 8.11500E+01 0.00000E+00 0.00000E+00
 -1        99 8.41500E+01 0.00000E+00 0.00000E+00
 -1       100 8.71500E+01 0.00000E+00 0.00000E+00
 -1       101 9.01500E+01 0.00000E+00 0.00000E+00
 -1       102 9.31500E+01 0.00000E+00 0.00000E+00
 -1       103 9.61500E+01 0.00000E+00 0.00000E+00
 -1       104 9.91500E+01 0.00000E+00 0.00000E+00
 -1       105 1.02150E+02 0.00000E+00 0.00000E+00
 -1       106 1.05150E+02 0.00000E+00 0.00000E+00
 -1       107 1.08150E+02 0.00000E+00 0.00000E+00
 -1       108 1.11150E+02 0.00000E+00 0.00000E+00
 -1       109 1.14150E+02 0.00000E+00 0.00000E+00
 -1       110 1.17150E+02 0.00000E+00 0.00000E+00
 -1       111 1.20150E+02 0.00000E+00 0.00000E+00
 -1       112 1.23150E+02 0.00000E+00 0.00000E+00
 -1       113 1.26150E+02 0.00000E+00 0.00000E+00
 -1       114 1.29150E+02 0.00000E+00 0.00000E+00
 -1       115 1.32150E+02 0.00000E+00 0.00000E+00
 -1       116 1.35150E+02 0.00000E+00 0.00000E+00
 -1       117 1.38150E+02 0.00000E+00 0.00000E+00
 -1       118 1.41150E+02 0.00000E+00 0.00000E+00
 -1       119 1.44150E+02 0.00000E+00 0.00000E+00
 -1       120 1.47150E+02 0.00000E+00 0.00000E+00
 -1       121 1.50000E+02 2.95000E+00 0.00000E+00
 -1       122 1.50000E+02 5.90000E+00 0.00000E+00
 -1       123 1.50000E+02 8.85000E+00 0.00000E+00
 -1       124 1.50000E+02 1.18000E+01 0.00000E+00
 -1       125 1.50000E+02 1.47500E+01 0.00000E+00
 -1       126 1.50000E+02 1.76500E+01 0.00000E+00
 -1       127 1.50000E+02 2.06000E+01 0.00000E+00
 -1       128 1.50000E+02 2.35500E+01 0.00000E+00
 -1       129 1.50000E+02 2.65000E+01 0.00000E+00
 -1       130 1.50000E+02 2.94500E+01 0.00000E+00
 -1       131 1.50000E+02 3.24000E+01 0.00000E+00
 -1       132 1.50000E+02 3.53000E+01 0.00000E+00
 -1       133 1.50000E+02 3.82500E+01 0.00000E+00
 -1       134 1.50000E+02 4.12000E+01 0.00000E+00
 -1       135 1.50000E+02 4.41500E+01 0.00000E+00
 -1       136 1.50000E+02 4.71000E+01 0.00000E+00
 -1       137 1.19089E+02 3.22124E+01 0.00000E+00
 -1       138 1.18563E+02 3.07762E+01 0.00000E+00
 -1       139 1.17670E+02 2.94049E+01 0.00000E+00
 -1       140 1.16571E+02 2.83464E+01 0.00000E+00
 -1       141 1.15290E+02 2.75606E+01 0.00000E+00
 -1       142 1.13840E+02 2.70594E+01 0.00000E+00
 -1       143 1.12326E+02 2.68862E+01 0.00000E+00
 -1       144 1.10884E+02 2.70292E+01 0.00000E+00
 -1       145 1.09483E+02 2.74743E+01 0.00000E+00
 -1       146 1.08058E+02 2.83114E+01 0.00000E+00
 -1       147 1.06969E+02 2.93399E+01 0.00000E+00
 -1       148 1.06139E+02 3.05476E+01 0.00000E+00
 -1       149 1.05566E+02 3.19456E+01 0.00000E+00
 -1       150 1.05308E+02 3.34185E+01 0.00000E+00
 -1       151 1.05358E+02 3.48465E+01 0.00000E+00
 -1       152 1.05786E+02 3.64701E+01 0.00000E+00
 -1       153 1.06545E+02 3.78825E+01 0.00000E+00
 -1       154 1.07539E+02 3.90252E+01 0.00000E+00
 -1       155 1.08858E+02 3.99862E+01 0.00000E+00
 -1       156 1.10205E+02 4.05676E+01 0.00000E+00
 -1       157 1.13185E+02 4.08289E+01 0.00000E+00
 -1       158 1.14602E+02 4.04938E+01 0.00000E+00
 -1       159 1.15895E+02 3.98878E+01 0.00000E+00
 -1       160 1.17020E+02 3.90479E+01 0.00000E+00
 -1       161 1.17973E+02 3.79756E+01 0.00000E+00
 -1       162 1.18722E+02 3.66527E+01 0.00000E+00
 -1       163 1.19146E+02 3.53088E+01 0.00000E+00
 -1       164 2.59800E+00 4.55750E+01 0.00000E+00
 -1       165 2.59800E+00 4.26250E+01 0.00000E+00
 -1       166 2.59800E+00 3.96750E+01 0.00000E+00
 -1       167 2.59800E+00 3.67250E+01 0.00000E+00
 -1       168 2.59800E+00 3.38250E+01 0.00000E+00
 -1       169 2.59800E+00 3.08750E+01 0.00000E+00
 -1       170 2.59800E+00 2.79250E+01 0.00000E+00
 -1       171 2.59800E+00 2.49750E+01 0.00000E+00
 -1       172 2.59800E+00 2.20250E+01 0.00000E+00
 -1       173 2.59800E+00 1.90750E+01 0.00000E+00
 -1       174 2.59800E+00 1.61750E+01 0.00000E+00
 -1       175 2.59800E+00 1.32250E+01 0.00000E+00
 -1       176 2.59800E+00 1.02750E+01 0.00000E+00
 -1       177 2.59800E+00 7.32500E+00 0.00000E+00
 -1       178 2.59800E+00 4.37500E+00 0.00000E+00
 -1       179 2.87400E+00 2.18750E+00 0.00000E+00
 -1       180 4.65000E+00 4.74020E+01 0.00000E+00
 -1       181 7.65000E+00 4.74020E+01 0.00000E+00
 -1       182 1.06500E+01 4.74020E+01 0.00000E+00
 -1       183 1.36500E+01 4.74020E+01 0.00000E+00
 -1       184 1.66500E+01 4.74020E+01 0.00000E+00
 -1       185 1.96500E+01 4.74020E+01 0.00000E+00
 -1       186 2.26500E+01 4.74020E+01 0.00000E+00
 -1       187 2.56500E+01 4.74020E+01 0.00000E+00
 -1       188 2.86500E+01 4.74020E+01 0.00000E+00
 -1       189 3.16500E+01 4.74020E+01 0.00000E+00
 -1       190 3.46500E+01 4.74020E+01 0.00000E+00
 -1       191 3.76500E+01 4.74020E+01 0.00000E+00
 -1       192 4.06500E+01 4.74020E+01 0.00000E+00
 -1       193 4.36500E+01 4.74020E+01 0.00000E+00
 -1       194 4.66500E+01 4.74020E+01 0.00000E+00
 -1       195 4.96500E+01 4.74020E+01 0.00000E+00
 -1       196 5.26500E+01 4.74020E+01 0.00000E+00
 -1       197 5.56500E+01 4.74020E+01 0.00000E+00
 -1       198 5.86500E+01 4.74020E+01 0.00000E+00
 -1       199 6.16500E+01 4.74020E+01 0.00000E+00
 -1       200 6.46500E+01 4.74020E+01 0.00000E+00
 -1       201 6.76500E+01 4.74020E+01 0.00000E+00
 -1       202 7.06500E+01 4.74020E+01 0.00000E+00
 -1       203 7.36500E+01 4.74020E+01 0.00000E+00
 -1       204 7.66500E+01 4.74020E+01 0.00000E+00
 -1       205 7.96500E+01 4.74020E+01 0.00000E+00
 -1       206 8.26500E+01 4.74020E+01 0.00000E+00
 -1       207 8.56500E+01 4.74020E+01 0.00000E+00
 -1       208 8.86500E+01 4.74020E+01 0.00000E+00
 -1       209 9.16500E+01 4.74020E+01 0.00000E+00
 -1       210 9.46500E+01 4.74020E+01 0.00000E+00
 -1       211 9.76500E+01 4.74020E+01 0.00000E+00
 -1       212 1.00650E+02 4.74020E+01 0.00000E+00
 -1       213 1.03650E+02 4.74020E+01 0.00000E+00
 -1       214 1.06650E+02 4.74020E+01 0.00000E+00
 -1       215 1.09650E+02 4.74020E+01 0.00000E+00
 -1       216 1.12500E+02 4.74020E+01 0.00000E+00
 -1       217 1.15500E+02 4.74020E+01 0.00000E+00
 -1       218 1.18500E+02 4.74020E+01 0.00000E+00
 -1       219 1.21500E+02 4.74020E+01 0.00000E+00
 -1       220 1.24500E+02 4.74020E+01 0.00000E+00
 -1       221 1.27500E+02 4.74020E+01 0.00000E+00
 -1       222 1.30500E+02 4.74020E+01 0.00000E+00
 -1       223 1.33500E+02 4.74020E+01 0.00000E+00
 -1       224 1.36500E+02 4.74020E+01 0.00000E+00
 -1       225 1.39500E+02 4.74020E+01 0.00000E+00
 -1       226 1.42500E+02 4.74020E+01 0.00000E+00
 -1       227 1.45500E+02 4.74020E+01 0.00000E+00
 -1       228 1.47750E+02 4.72510E+01 0.00000E+00
 -1       229 5.87400E+00 2.18750E+00 0.00000E+00
 -1       230 8.87400E+00 2.18750E+00 0.00000E+00
 -1       231 1.18740E+01 2.18750E+00 0.00000E+00
 -1       232 1.48740E+01 2.18750E+00 0.00000E+00
 -1       233 1.78740E+01 2.18750E+00 0.00000E+00
 -1       234 2.08740E+01 2.18750E+00 0.00000E+00
 -1       235 2.38740E+01 2.18750E+00 0.00000E+00
 -1       236 2.68740E+01 2.18750E+00 0.00000E+00
 -1       237 2.98740E+01 2.18750E+00 0.00000E+00
 -1       238 3.28740E+01 2.18750E+00 0.00000E+00
 -1       239 3.58740E+01 2.18750E+00 0.00000E+00
 -1       240 3.88740E+01 2.18750E+00 0.00000E+00
 -1       241 4.18740E+01 2.18750E+00 0.00000E+00
 -1       242 4.48740E+01 2.18750E+00 0.00000E+00
 -1       243 4.78740E+01 2.18750E+00 0.00000E+00
 -1       244 5.08740E+01 2.18750E+00 0.00000E+00
 -1       245 5.38740E+01 2.18750E+00 0.00000E+00
 -1       246 5.68740E+01 2.18750E+00 0.00000E+00
 -1       247 5.98740E+01 2.18750E+00 0.00000E+00
 -1       248 6.28740E+01 2.18750E+00 0.00000E+00
 -1       249 6.58740E+01 2.18750E+00 0.00000E+00
 -1       250 6.88740E+01 2.18750E+00 0.00000E+00
 -1       251 7.18740E+01 2.18750E+00 0.00000E+00
 -1       252 7.48740E+01 2.18750E+00 0.00000E+00
 -1       253 7.78740E+01 2.18750E+00 0.00000E+00
 -1       254 8.08740E+01 2.18750E+00 0.00000E+00
 -1       255 8.38740E+01 2.18750E+00 0.00000E+00
 -1       256 8.68740E+01 2.18750E+00 0.00000E+00
 -1       257 8.98740E+01 2.18750E+00 0.00000E+00
 -1       258 9.28740E+01 2.18750E+00 0.00000E+00
 -1       259 9.58740E+01 2.18750E+00 0.00000E+00
 -1       260 9.88740E+01 2.18750E+00 0.00000E+00
 -1       261 1.01874E+02 2.18750E+00 0.00000E+00
 -1       262 1.04874E+02 2.18750E+00 0.00000E+00
 -1       263 1.07874E+02 2.18750E+00 0.00000E+00
 -1       264 1.10874E+02 2.18750E+00 0.00000E+00
 -1       265 1.13874E+02 2.18750E+00 0.00000E+00
 -1       266 1.16874E+02 2.18750E+00 0.00000E+00
 -1       267 1.19874E+02 2.18750E+00 0.00000E+00
 -1       268 1.22874E+02 2.18750E+00 0.00000E+00
 -1       269 1.25874E+02 2.18750E+00 0.00000E+00
 -1       270 1.28874E+02 2.18750E+00 0.00000E+00
 -1       271 1.31874E+02 2.18750E+00 0.00000E+00
 -1       272 1.34874E+02 2.18750E+00 0.00000E+00
 -1       273 1.37874E+02 2.18750E+00 0.00000E+00
 -1       274 1.40874E+02 2.18750E+00 0.00000E+00
 -1       275 1.43874E+02 2.18750E+00 0.00000E+00
 -1       276 1.46874E+02 2.18750E+00 0.00000E+00
 -1       277 1.47402E+02 4.42500E+00 0.00000E+00
 -1       278 1.47402E+02 7.37500E+00 0.00000E+00
 -1       279 1.47402E+02 1.03250E+01 0.00000E+00
 -1       280 1.47402E+02 1.32750E+01 0.00000E+00
 -1       281 1.47402E+02 1.61750E+01 0.00000E+00
 -1       282 1.47402E+02 1.91250E+01 0.00000E+00
 -1       283 1.47402E+02 2.20750E+01 0.00000E+00
 -1       284 1.47402E+02 2.50250E+01 0.00000E+00
 -1       285 1.47402E+02 2.79750E+01 0.00000E+00
 -1       286 1.47402E+02 3.09250E+01 0.00000E+00
 -1       287 1.47402E+02 3.38250E+01 0.00000E+00
 -1       288 1.47402E+02 3.67750E+01 0.00000E+00
 -1       289 1.47402E+02 3.97250E+01 0.00000E+00
 -1       290 1.47402E+02 4.26750E+01 0.00000E+00
 -1       291 1.47576E+02 4.49630E+01 0.00000E+00
 -1       292 1.20727E+02 3.28629E+01 0.00000E+00
 -1       293 1.20043E+02 3.10488E+01 0.00000E+00
 -1       294 1.19343E+02 2.92914E+01 0.00000E+00
 -1       295 1.18078E+02 2.78820E+01 0.00000E+00
 -1       296 1.16565E+02 2.69200E+01 0.00000E+00
 -1       297 1.14988E+02 2.60850E+01 0.00000E+00
 -1       298 1.13230E+02 2.56850E+01 0.00000E+00
 -1       299 1.11485E+02 2.57512E+01 0.00000E+00
 -1       300 1.09816E+02 2.60963E+01 0.00000E+00
 -1       301 1.07987E+02 2.65585E+01 0.00000E+00
 -1       302 1.06451E+02 2.77005E+01 0.00000E+00
 -1       303 1.05486E+02 2.92097E+01 0.00000E+00
 -1       304 1.04654E+02 3.07550E+01 0.00000E+00
 -1       305 1.04160E+02 3.24578E+01 0.00000E+00
 -1       306 1.04121E+02 3.41754E+01 0.00000E+00
 -1       307 1.04076E+02 3.60530E+01 0.00000E+00
 -1       308 1.04950E+02 3.78292E+01 0.00000E+00
 -1       309 1.06127E+02 3.92497E+01 0.00000E+00
 -1       310 1.07386E+02 4.06211E+01 0.00000E+00
 -1       311 1.09051E+02 4.13899E+01 0.00000E+00
 -1       312 1.10723E+02 4.20721E+01 0.00000E+00
 -1       313 1.12504E+02 4.20594E+01 0.00000E+00
 -1       314 1.14192E+02 4.19228E+01 0.00000E+00
 -1       315 1.15763E+02 4.12885E+01 0.00000E+00
 -1       316 1.17183E+02 4.04395E+01 0.00000E+00
 -1       317 1.18403E+02 3.93171E+01 0.00000E+00
 -1       318 1.19549E+02 3.79940E+01 0.00000E+00
 -1       319 1.20090E+02 3.63455E+01 0.00000E+00
 -1       320 1.20425E+02 3.47213E+01 0.00000E+00
 -1       321 5.19600E+00 4.11500E+01 0.00000E+00
 -1       322 5.19600E+00 4.41000E+01 0.00000E+00
 -1       323 5.19600E+00 3.52750E+01 0.00000E+00
 -1       324 5.19600E+00 3.23250E+01 0.00000E+00
 -1       325 5.19600E+00 2.93750E+01 0.00000E+00
 -1       326 5.19600E+00 2.64250E+01 0.00000E+00
 -1       327 5.19600E+00 2.34750E+01 0.00000E+00
 -1       328 5.19600E+00 2.05250E+01 0.00000E+00
 -1       329 5.19600E+00 1.76250E+01 0.00000E+00
 -1       330 5.19600E+00 1.46750E+01 0.00000E+00
 -1       331 5.19600E+00 1.17250E+01 0.00000E+00
 -1       332 5.19600E+00 8.77500E+00 0.00000E+00
 -1       333 5.19600E+00 5.82500E+00 0.00000E+00
 -1       334 5.53500E+00 4.00625E+00 0.00000E+00
 -1       335 8.53500E+00 4.00625E+00 0.00000E+00
 -1       336 9.15000E+00 4.48040E+01 0.00000E+00
 -1       337 1.21500E+01 4.48040E+01 0.00000E+00
 -1       338 1.51500E+01 4.48040E+01 0.00000E+00
 -1       339 1.81500E+01 4.48040E+01 0.00000E+00
 -1       340 2.11500E+01 4.48040E+01 0.00000E+00
 -1       341 2.41500E+01 4.48040E+01 0.00000E+00
 -1       342 2.71500E+01 4.48040E+01 0.00000E+00
 -1       343 3.01500E+01 4.48040E+01 0.00000E+00
 -1       344 3.31500E+01 4.48040E+01 0.00000E+00
 -1       345 3.61500E+01 4.48040E+01 0.00000E+00
 -1       346 3.91500E+01 4.48040E+01 0.00000E+00
 -1       347 4.21500E+01 4.48040E+01 0.00000E+00
 -1       348 4.51500E+01 4.48040E+01 0.00000E+00
 -1       349 4.81500E+01 4.48040E+01 0.00000E+00
 -1       350 5.11500E+01 4.48040E+01 0.00000E+00
 -1       351 5.41500E+01 4.48040E+01 0.00000E+00
 -1       352 5.71500E+01 4.48040E+01 0.00000E+00
 -1       353 6.01500E+01 4.48040E+01 0.00000E+00
 -1       354 6.31500E+01 4.48040E+01 0.00000E+00
 -1       355 6.61500E+01 4.48040E+01 0.00000E+00
 -1       356 6.91500E+01 4.48040E+01 0.00000E+00
 -1       357 7.21500E+01 4.48040E+01 0.00000E+00
 -1       358 7.51500E+01 4.48040E+01 0.00000E+00
 -1       359 7.81500E+01 4.48040E+01 0.00000E+00
 -1       360 8.11500E+01 4.48040E+01 0.00000E+00
 -1       361 8.41500E+01 4.48040E+01 0.00000E+00
 -1       362 8.71500E+01 4.48040E+01 0.00000E+00
 -1       363 9.01500E+01 4.48040E+01 0.00000E+00
 -1       364 9.31500E+01 4.48040E+01 0.00000E+00
 -1       365 9.61500E+01 4.48040E+01 0.00000E+00
 -1       366 9.91500E+01 4.48040E+01 0.00000E+00
 -1       367 1.02150E+02 4.48040E+01 0.00000E+00
 -1       368 1.05150E+02 4.48040E+01 0.00000E+00
 -1       369 1.08150E+02 4.48040E+01 0.00000E+00
 -1       370 1.11000E+02 4.48040E+01 0.00000E+00
 -1       371 1.14000E+02 4.48040E+01 0.00000E+00
 -1       372 1.17000E+02 4.48040E+01 0.00000E+00
 -1       373 1.20000E+02 4.48040E+01 0.00000E+00
 -1       374 1.23000E+02 4.48040E+01 0.00000E+00
 -1       375 1.26000E+02 4.48040E+01 0.00000E+00
 -1       376 1.29000E+02 4.48040E+01 0.00000E+00
 -1       377 1.32000E+02 4.48040E+01 0.00000E+00
 -1       378 1.35000E+02 4.48040E+01 0.00000E+00
 -1       379 1.38000E+02 4.48040E+01 0.00000E+00
 -1       380 1.41000E+02 4.48040E+01 0.00000E+00
 -1       381 1.44000E+02 4.48040E+01 0.00000E+00
 -1       382 1.33740E+01 4.78550E+00 0.00000E+00
 -1       383 1.63740E+01 4.78550E+00 0.00000E+00
 -1       384 1.93740E+01 4.78550E+00 0.00000E+00
 -1       385 2.23740E+01 4.78550E+00 0.00000E+00
 -1       386 2.53740E+01 4.78550E+00 0.00000E+00
 -1       387 2.83740E+01 4.78550E+00 0.00000E+00
 -1       388 3.13740E+01 4.78550E+00 0.00000E+00
 -1       389 3.43740E+01 4.78550E+00 0.00000E+00
 -1       390 3.73740E+01 4.78550E+00 0.00000E+00
 -1       391 4.03740E+01 4.78550E+00 0.00000E+00
 -1       392 4.33740E+01 4.78550E+00 0.00000E+00
 -1       393 4.63740E+01 4.78550E+00 0.00000E+00
 -1       394 4.93740E+01 4.78550E+00 0.00000E+00
 -1       395 5.23740E+01 4.78550E+00 0.00000E+00
 -1       396 5.53740E+01 4.78550E+00 0.00000E+00
 -1       397 5.83740E+01 4.78550E+00 0.00000E+00
 -1       398 6.13740E+01 4.78550E+00 0.00000E+00
 -1       399 6.43740E+01 4.78550E+00 0.00000E+00
 -1       400 6.73740E+01 4.78550E+00 0.00000E+00
 -1       401 7.03740E+01 4.78550E+00 0.00000E+00
 -1       402 7.33740E+01 4.78550E+00 0.00000E+00
 -1       403 7.63740E+01 4.78550E+00 0.00000E+00
 -1       404 7.93740E+01 4.78550E+00 0.00000E+00
 -1       405 8.23740E+01 4.78550E+00 0.00000E+00
 -1       406 8.53740E+01 4.78550E+00 0.00000E+00
 -1       407 8.83740E+01 4.78550E+00 0.00000E+00
 -1       408 9.13740E+01 4.78550E+00 0.00000E+00
 -1       409 9.43740E+01 4.78550E+00 0.00000E+00
 -1       410 9.73740E+01 4.78550E+00 0.00000E+00
 -1       411 1.00374E+02 4.78550E+00 0.00000E+00
 -1       412 1.03374E+02 4.78550E+00 0.00000E+00
 -1       413 1.06374E+02 4.78550E+00 0.00000E+00
 -1       414 1.09374E+02 4.78550E+00 0.00000E+00
 -1       415 1.12374E+02 4.78550E+00 0.00000E+00
 -1       416 1.15374E+02 4.78550E+00 0.00000E+00
 -1       417 1.18374E+02 4.78550E+00 0.00000E+00
 -1       418 1.21374E+02 4.78550E+00 0.00000E+00
 -1       419 1.24374E+02 4.78550E+00 0.00000E+00
 -1       420 1.27374E+02 4.78550E+00 0.00000E+00
 -1       421 1.30374E+02 4.78550E+00 0.00000E+00
 -1       422 1.33374E+02 4.78550E+00 0.00000E+00
 -1       423 1.36374E+02 4.78550E+00 0.00000E+00
 -1       424 1.39374E+02 4.78550E+00 0.00000E+00
 -1       425 1.42374E+02 4.78550E+00 0.00000E+00
 -1       426 1.44888E+02 4.60525E+00 0.00000E+00
 -1       427 1.44804E+02 1.18000E+01 0.00000E+00
 -1       428 1.44804E+02 8.85000E+00 0.00000E+00
 -1       429 1.44804E+02 1.47000E+01 0.00000E+00
 -1       430 1.44804E+02 1.76500E+01 0.00000E+00
 -1       431 1.44804E+02 2.06000E+01 0.00000E+00
 -1       432 1.44804E+02 2.35500E+01 0.00000E+00
 -1       433 1.44804E+02 2.65000E+01 0.00000E+00
 -1       434 1.44804E+02 2.94500E+01 0.00000E+00
 -1       435 1.44804E+02 3.23500E+01 0.00000E+00
 -1       436 1.44804E+02 3.53000E+01 0.00000E+00
 -1       437 1.44804E+02 3.82500E+01 0.00000E+00
 -1       438 1.44804E+02 4.12000E+01 0.00000E+00
 -1       439 1.09545E+01 4.39587E+00 0.00000E+00
 -1       440 1.21286E+02 2.95350E+01 0.00000E+00
 -1       441 1.18061E+02 2.62364E+01 0.00000E+00
 -1       442 1.22186E+02 3.40536E+01 0.00000E+00
 -1       443 1.19737E+02 2.76650E+01 0.00000E+00
 -1       444 5.19600E+00 3.82125E+01 0.00000E+00
 -1       445 1.16383E+02 2.53572E+01 0.00000E+00
 -1       446 1.14453E+02 2.43760E+01 0.00000E+00
 -1       447 1.12302E+02 2.42554E+01 0.00000E+00
 -1       448 1.10337E+02 2.44083E+01 0.00000E+00
 -1       449 1.08508E+02 2.48705E+01 0.00000E+00
 -1       450 1.06246E+02 2.58204E+01 0.00000E+00
 -1       451 1.04594E+02 2.75761E+01 0.00000E+00
 -1       452 1.03762E+02 2.91213E+01 0.00000E+00
 -1       453 1.02599E+02 3.10826E+01 0.00000E+00
 -1       454 1.02845E+02 3.32871E+01 0.00000E+00
 -1       455 1.02719E+02 3.50809E+01 0.00000E+00
 -1       456 1.03275E+02 3.75503E+01 0.00000E+00
 -1       457 1.04347E+02 3.95271E+01 0.00000E+00
 -1       458 1.05606E+02 4.08985E+01 0.00000E+00
 -1       459 1.07534E+02 4.24865E+01 0.00000E+00
 -1       460 1.11625E+02 4.36133E+01 0.00000E+00
 -1       461 1.15588E+02 4.31184E+01 0.00000E+00
 -1       462 1.17007E+02 4.22694E+01 0.00000E+00
 -1       463 1.18727E+02 4.08941E+01 0.00000E+00
 -1       464 1.19956E+02 3.95040E+01 0.00000E+00
 -1       465 1.21369E+02 3.76790E+01 0.00000E+00
 -1       466 1.21778E+02 3.58663E+01 0.00000E+00
 -1       467 1.21970E+02 3.13491E+01 0.00000E+00
 -1       468 1.01918E+02 3.65782E+01 0.00000E+00
 -1       469 1.09952E+02 4.29311E+01 0.00000E+00
 -1       470 1.13829E+02 4.37597E+01 0.00000E+00
 -1       471 7.79400E+00 3.08500E+01 0.00000E+00
 -1       472 7.79400E+00 3.38000E+01 0.00000E+00
 -1       473 7.79400E+00 2.49500E+01 0.00000E+00
 -1       474 7.79400E+00 2.20000E+01 0.00000E+00
 -1       475 7.79400E+00 1.91000E+01 0.00000E+00
 -1       476 7.79400E+00 1.61500E+01 0.00000E+00
 -1       477 7.79400E+00 1.32000E+01 0.00000E+00
 -1       478 7.79400E+00 1.02500E+01 0.00000E+00
 -1       479 7.79400E+00 7.30000E+00 0.00000E+00
 -1       480 8.16450E+00 5.65312E+00 0.00000E+00
 -1       481 1.06500E+01 4.22060E+01 0.00000E+00
 -1       482 1.21833E+02 2.75060E+01 0.00000E+00
 -1       483 1.20012E+02 2.56455E+01 0.00000E+00
 -1       484 1.36500E+01 4.22060E+01 0.00000E+00
 -1       485 1.66500E+01 4.22060E+01 0.00000E+00
 -1       486 1.96500E+01 4.22060E+01 0.00000E+00
 -1       487 2.26500E+01 4.22060E+01 0.00000E+00
 -1       488 2.56500E+01 4.22060E+01 0.00000E+00
 -1       489 2.86500E+01 4.22060E+01 0.00000E+00
 -1       490 3.16500E+01 4.22060E+01 0.00000E+00
 -1       491 3.46500E+01 4.22060E+01 0.00000E+00
 -1       492 3.76500E+01 4.22060E+01 0.00000E+00
 -1       493 4.06500E+01 4.22060E+01 0.00000E+00
 -1       494 4.36500E+01 4.22060E+01 0.00000E+00
 -1       495 4.66500E+01 4.22060E+01 0.00000E+00
 -1       496 4.96500E+01 4.22060E+01 0.00000E+00
 -1       497 5.26500E+01 4.22060E+01 0.00000E+00
 -1       498 5.56500E+01 4.22060E+01 0.00000E+00
 -1       499 5.86500E+01 4.22060E+01 0.00000E+00
 -1       500 6.16500E+01 4.22060E+01 0.00000E+00
 -1       501 6.46500E+01 4.22060E+01 0.00000E+00
 -1       502 6.76500E+01 4.22060E+01 0.00000E+00
 -1       503 7.06500E+01 4.22060E+01 0.00000E+00
 -1       504 7.36500E+01 4.22060E+01 0.00000E+00
 -1       505 7.66500E+01 4.22060E+01 0.00000E+00
 -1       506 7.96500E+01 4.22060E+01 0.00000E+00
 -1       507 8.26500E+01 4.22060E+01 0.00000E+00
 -1       508 8.56500E+01 4.22060E+01 0.00000E+00
 -1       509 8.86500E+01 4.22060E+01 0.00000E+00
 -1       510 9.16500E+01 4.22060E+01 0.00000E+00
 -1       511 9.46500E+01 4.22060E+01 0.00000E+00
 -1       512 9.76500E+01 4.22060E+01 0.00000E+00
 -1       513 1.00650E+02 4.22060E+01 0.00000E+00
 -1       514 1.18500E+02 4.27537E+01 0.00000E+00
 -1       515 1.21500E+02 4.24186E+01 0.00000E+00
 -1       516 1.24500E+02 4.24186E+01 0.00000E+00
 -1       517 1.27500E+02 4.24186E+01 0.00000E+00
 -1       518 1.30500E+02 4.24186E+01 0.00000E+00
 -1       519 1.33500E+02 4.24186E+01 0.00000E+00
 -1       520 1.36500E+02 4.24186E+01 0.00000E+00
 -1       521 1.39500E+02 4.24186E+01 0.00000E+00
 -1       522 1.42152E+02 4.18093E+01 0.00000E+00
 -1       523 2.08740E+01 7.38350E+00 0.00000E+00
 -1       524 1.78740E+01 7.38350E+00 0.00000E+00
 -1       525 1.48740E+01 7.38350E+00 0.00000E+00
 -1       526 2.38740E+01 7.38350E+00 0.00000E+00
 -1       527 2.68740E+01 7.38350E+00 0.00000E+00
 -1       528 2.98740E+01 7.38350E+00 0.00000E+00
 -1       529 3.28740E+01 7.38350E+00 0.00000E+00
 -1       530 3.58740E+01 7.38350E+00 0.00000E+00
 -1       531 3.88740E+01 7.38350E+00 0.00000E+00
 -1       532 4.18740E+01 7.38350E+00 0.00000E+00
 -1       533 4.48740E+01 7.38350E+00 0.00000E+00
 -1       534 4.78740E+01 7.38350E+00 0.00000E+00
 -1       535 5.08740E+01 7.38350E+00 0.00000E+00
 -1       536 5.38740E+01 7.38350E+00 0.00000E+00
 -1       537 5.68740E+01 7.38350E+00 0.00000E+00
 -1       538 5.98740E+01 7.38350E+00 0.00000E+00
 -1       539 6.28740E+01 7.38350E+00 0.00000E+00
 -1       540 6.58740E+01 7.38350E+00 0.00000E+00
 -1       541 6.88740E+01 7.38350E+00 0.00000E+00
 -1       542 7.18740E+01 7.38350E+00 0.00000E+00
 -1       543 7.48740E+01 7.38350E+00 0.00000E+00
 -1       544 7.78740E+01 7.38350E+00 0.00000E+00
 -1       545 8.08740E+01 7.38350E+00 0.00000E+00
 -1       546 8.38740E+01 7.38350E+00 0.00000E+00
 -1       547 8.68740E+01 7.38350E+00 0.00000E+00
 -1       548 8.98740E+01 7.38350E+00 0.00000E+00
 -1       549 9.28740E+01 7.38350E+00 0.00000E+00
 -1       550 9.58740E+01 7.38350E+00 0.00000E+00
 -1       551 9.88740E+01 7.38350E+00 0.00000E+00
 -1       552 1.01874E+02 7.38350E+00 0.00000E+00
 -1       553 1.04874E+02 7.38350E+00 0.00000E+00
 -1       554 1.07874E+02 7.38350E+00 0.00000E+00
 -1       555 1.10874E+02 7.38350E+00 0.00000E+00
 -1       556 1.13874E+02 7.38350E+00 0.00000E+00
 -1       557 1.16874E+02 7.38350E+00 0.00000E+00
 -1       558 1.19874E+02 7.38350E+00 0.00000E+00
 -1       559 1.22874E+02 7.38350E+00 0.00000E+00
 -1       560 1.25874E+02 7.38350E+00 0.00000E+00
 -1       561 1.28874E+02 7.38350E+00 0.00000E+00
 -1       562 1.31874E+02 7.38350E+00 0.00000E+00
 -1       563 1.34874E+02 7.38350E+00 0.00000E+00
 -1       564 1.37874E+02 7.38350E+00 0.00000E+00
 -1       565 1.40874E+02 7.38350E+00 0.00000E+00
 -1       566 1.42206E+02 1.61750E+01 0.00000E+00
 -1       567 1.42206E+02 1.32750E+01 0.00000E+00
 -1       568 1.42206E+02 1.03250E+01 0.00000E+00
 -1       569 1.23788E+02 3.25645E+01 0.00000E+00
 -1       570 1.42206E+02 1.91250E+01 0.00000E+00
 -1       571 1.42206E+02 2.20750E+01 0.00000E+00
 -1       572 1.42206E+02 2.50250E+01 0.00000E+00
 -1       573 1.42206E+02 2.79750E+01 0.00000E+00
 -1       574 1.42206E+02 3.08750E+01 0.00000E+00
 -1       575 1.42206E+02 3.38250E+01 0.00000E+00
 -1       576 1.42206E+02 3.67750E+01 0.00000E+00
 -1       577 1.42179E+02 3.92922E+01 0.00000E+00
 -1       578 1.21820E+02 3.94878E+01 0.00000E+00
 -1       579 7.92300E+00 4.16780E+01 0.00000E+00
 -1       580 1.17941E+02 2.44260E+01 0.00000E+00
 -1       581 1.23390E+02 2.97783E+01 0.00000E+00
 -1       582 1.02377E+02 3.93167E+01 0.00000E+00
 -1       583 1.06713E+02 2.37641E+01 0.00000E+00