    1C
    1UUSER                                                              
    1UDATE              27.october.2022                                 
    1UTIME              00:23:04                                        
    1UHOST                                                              
    1UPGM               CalculiX                                        
    1UVERSION           Version 2.17                             
    1UCOMPILETIME       Thu Jul 23 21:43:50 CEST 2020                    
    1UDIR                                                               
    1UDBN                                                               
    1UMAT    1SOLIDMATERIAL                                             
    2C                          4248                                     1
 -1         1 1.39046E+02 3.64666E+01 0.00000E+00
 -1         2 1.42834E+02 3.02472E+01 0.00000E+00
 -1         3 1.50000E+02 0.00000E+00 0.00000E+00
 -1         4 1.50000E+02 5.00000E+01 0.00000E+00
 -1         5 0.00000E+00 0.00000E+00 0.00000E+00
 -1         6 0.00000E+00 5.00000E+01 0.00000E+00
 -1         7 0.00000E+00 4.70500E+01 0.00000E+00
 -1         8 0.00000E+00 4.41000E+01 0.00000E+00
 -1         9 0.00000E+00 4.11500E+01 0.00000E+00
 -1        10 0.00000E+00 3.82000E+01 0.00000E+00
 -1        11 0.00000E+00 3.52500E+01 0.00000E+00
 -1        12 0.00000E+00 3.23500E+01 0.00000E+00
 -1        13 0.00000E+00 2.94000E+01 0.00000E+00
 -1        14 0.00000E+00 2.64500E+01 0.00000E+00
 -1        15 0.00000E+00 2.35000E+01 0.00000E+00
 -1        16 0.00000E+00 2.05500E+01 0.00000E+00
 -1        17 0.00000E+00 1.76000E+01 0.00000E+00
 -1        18 0.00000E+00 1.47000E+01 0.00000E+00
 -1        19 0.00000E+00 1.17500E+01 0.00000E+00
 -1        20 0.00000E+00 8.80000E+00 0.00000E+00
 -1        21 0.00000E+00 5.85000E+00 0.00000E+00
 -1        22 0.00000E+00 2.90000E+00 0.00000E+00
 -1        23 3.15000E+00 5.00000E+01 0.00000E+00
 -1        24 6.15000E+00 5.00000E+01 0.00000E+00
 -1        25 9.15000E+00 5.00000E+01 0.00000E+00
 -1        26 1.21500E+01 5.00000E+01 0.00000E+00
 -1        27 1.51500E+01 5.00000E+01 0.00000E+00
 -1        28 1.81500E+01 5.00000E+01 0.00000E+00
 -1        29 2.11500E+01 5.00000E+01 0.00000E+00
 -1        30 2.41500E+01 5.00000E+01 0.00000E+00
 -1        31 2.71500E+01 5.00000E+01 0.00000E+00
 -1        32 3.01500E+01 5.00000E+01 0.00000E+00
 -1        33 3.31500E+01 5.00000E+01 0.00000E+00
 -1        34 3.61500E+01 5.00000E+01 0.00000E+00
 -1        35 3.91500E+01 5.00000E+01 0.00000E+00
 -1        36 4.21500E+01 5.00000E+01 0.00000E+00
 -1        37 4.51500E+01 5.00000E+01 0.00000E+00
 -1        38 4.81500E+01 5.00000E+01 0.00000E+00
 -1        39 5.11500E+01 5.00000E+01 0.00000E+00
 -1        40 5.41500E+01 5.00000E+01 0.00000E+00
 -1        41 5.71500E+01 5.00000E+01 0.00000E+00
 -1        42 6.01500E+01 5.00000E+01 0.00000E+00
 -1        43 6.31500E+01 5.00000E+01 0.00000E+00
 -1        44 6.61500E+01 5.00000E+01 0.00000E+00
 -1        45 6.91500E+01 5.00000E+01 0.00000E+00
 -1        46 7.21500E+01 5.00000E+01 0.00000E+00
 -1        47 7.51500E+01 5.00000E+01 0.00000E+00
 -1        48 7.81500E+01 5.00000E+01 0.00000E+00
 -1        49 8.11500E+01 5.00000E+01 0.00000E+00
 -1        50 8.41500E+01 5.00000E+01 0.00000E+00
 -1        51 8.71500E+01 5.00000E+01 0.00000E+00
 -1        52 9.01500E+01 5.00000E+01 0.00000E+00
 -1        53 9.31500E+01 5.00000E+01 0.00000E+00
 -1        54 9.61500E+01 5.00000E+01 0.00000E+00
 -1        55 9.91500E+01 5.00000E+01 0.00000E+00
 -1        56 1.02150E+02 5.00000E+01 0.00000E+00
 -1        57 1.05150E+02 5.00000E+01 0.00000E+00
 -1        58 1.08150E+02 5.00000E+01 0.00000E+00
 -1        59 1.11150E+02 5.00000E+01 0.00000E+00
 -1        60 1.14150E+02 5.00000E+01 0.00000E+00
 -1        61 1.17150E+02 5.00000E+01 0.00000E+00
 -1        62 1.20150E+02 5.00000E+01 0.00000E+00
 -1        63 1.23150E+02 5.00000E+01 0.00000E+00
 -1        64 1.26150E+02 5.00000E+01 0.00000E+00
 -1        65 1.29150E+02 5.00000E+01 0.00000E+00
 -1        66 1.32150E+02 5.00000E+01 0.00000E+00
 -1        67 1.35150E+02 5.00000E+01 0.00000E+00
 -1        68 1.38150E+02 5.00000E+01 0.00000E+00
 -1        69 1.41150E+02 5.00000E+01 0.00000E+00
 -1        70 1.44150E+02 5.00000E+01 0.00000E+00
 -1        71 1.47150E+02 5.00000E+01 0.00000E+00
 -1        72 3.15000E+00 0.00000E+00 0.00000E+00
 -1        73 6.15000E+00 0.00000E+00 0.00000E+00
 -1        74 9.15000E+00 0.00000E+00 0.00000E+00
 -1        75 1.21500E+01 0.00000E+00 0.00000E+00
 -1        76 1.51500E+01 0.00000E+00 0.00000E+00
 -1        77 1.81500E+01 0.00000E+00 0.00000E+00
 -1        78 2.11500E+01 0.00000E+00 0.00000E+00
 -1        79 2.41500E+01 0.00000E+00 0.00000E+00
 -1        80 2.71500E+01 0.00000E+00 0.00000E+00
 -1        81 3.01500E+01 0.00000E+00 0.00000E+00
 -1        82 3.31500E+01 0.00000E+00 0.00000E+00
 -1        83 3.61500E+01 0.00000E+00 0.00000E+00
 -1        84 3.91500E+01 0.00000E+00 0.00000E+00
 -1        85 4.21500E+01 0.00000E+00 0.00000E+00
 -1        86 4.51500E+01 0.00000E+00 0.00000E+00
 -1        87 4.81500E+01 0.00000E+00 0.00000E+00
 -1        88 5.11500E+01 0.00000E+00 0.00000E+00
 -1        89 5.41500E+01 0.00000E+00 0.00000E+00
 -1        90 5.71500E+01 0.00000E+00 0.00000E+00
 -1        91 6.01500E+01 0.00000E+00 0.00000E+00
 -1        92 6.31500E+01 0.00000E+00 0.00000E+00
 -1        93 6.61500E+01 0.00000E+00 0.00000E+00
 -1        94 6.91500E+01 0.00000E+00 0.00000E+00
 -1        95 7.21500E+01 0.00000E+00 0.00000E+00
 -1        96 7.51500E+01 0.00000E+00 0.00000E+00
 -1        97 7.81500E+01 0.00000E+00 0.00000E+00
 -1        98 8.11500E+01 0.00000E+00 0.00000E+00
 -1        99 8.41500E+01 0.00000E+00 0.00000E+00
 -1       100 8.71500E+01 0.00000E+00 0.00000E+00
 -1       101 9.01500E+01 0.00000E+00 0.00000E+00
 -1       102 9.31500E+01 0.00000E+00 0.00000E+00
 -1       103 9.61500E+01 0.00000E+00 0.00000E+00
 -1       104 9.91500E+01 0.00000E+00 0.00000E+00
 -1       105 1.02150E+02 0.00000E+00 0.00000E+00
 -1       106 1.05150E+02 0.00000E+00 0.00000E+00
 -1       107 1.08150E+02 0.00000E+00 0.00000E+00
 -1       108 1.11150E+02 0.00000E+00 0.00000E+00
 -1       109 1.14150E+02 0.00000E+00 0.00000E+00
 -1       110 1.17150E+02 0.00000E+00 0.00000E+00
 -1       111 1.20150E+02 0.00000E+00 0.00000E+00
 -1       112 1.23150E+02 0.00000E+00 0.00000E+00
 -1       113 1.26150E+02 0.00000E+00 0.00000E+00
 -1       114 1.29150E+02 0.00000E+00 0.00000E+00
 -1       115 1.32150E+02 0.00000E+00 0.00000E+00
 -1       116 1.35150E+02 0.00000E+00 0.00000E+00
 -1       117 1.38150E+02 0.00000E+00 0.00000E+00
 -1       118 1.41150E+02 0.00000E+00 0.00000E+00
 -1       119 1.44150E+02 0.00000E+00 0.00000E+00
 -1       120 1.47150E+02 0.00000E+00 0.00000E+00
 -1       121 1.50000E+02 3.05000E+00 0.00000E+00
 -1       122 1.50000E+02 6.05000E+00 0.00000E+00
 -1       123 1.50000E+02 9.10000E+00 0.00000E+00
 -1       124 1.50000E+02 1.21000E+01 0.00000E+00
 -1       125 1.50000E+02 1.51500E+01 0.00000E+00
 -1       126 1.50000E+02 1.81500E+01 0.00000E+00
 -1       127 1.50000E+02 2.11500E+01 0.00000E+00
 -1       128 1.50000E+02 2.41500E+01 0.00000E+00
 -1       129 1.50000E+02 2.67000E+01 0.00000E+00
 -1       130 1.50000E+02 2.91000E+01 0.00000E+00
 -1       131 1.50000E+02 3.13500E+01 0.00000E+00
 -1       132 1.50000E+02 3.34000E+01 0.00000E+00
 -1       133 1.50000E+02 3.55500E+01 0.00000E+00
 -1       134 1.50000E+02 3.79500E+01 0.00000E+00
 -1       135 1.50000E+02 4.09500E+01 0.00000E+00
 -1       136 1.50000E+02 4.40000E+01 0.00000E+00
 -1       137 1.50000E+02 4.70000E+01 0.00000E+00
 -1       138 1.42642E+02 2.86190E+01 0.00000E+00
 -1       139 1.42170E+02 2.72725E+01 0.00000E+00
 -1       140 1.41335E+02 2.59178E+01 0.00000E+00
 -1       141 1.40353E+02 2.49013E+01 0.00000E+00
 -1       142 1.39130E+02 2.40719E+01 0.00000E+00
 -1       143 1.37696E+02 2.34993E+01 0.00000E+00
 -1       144 1.36218E+02 2.32578E+01 0.00000E+00
 -1       145 1.34580E+02 2.33604E+01 0.00000E+00
 -1       146 1.33216E+02 2.37551E+01 0.00000E+00
 -1       147 1.31899E+02 2.44577E+01 0.00000E+00
 -1       148 1.30687E+02 2.55033E+01 0.00000E+00
 -1       149 1.29781E+02 2.67317E+01 0.00000E+00
 -1       150 1.29148E+02 2.81737E+01 0.00000E+00
 -1       151 1.28866E+02 2.95779E+01 0.00000E+00
 -1       152 1.28889E+02 3.11194E+01 0.00000E+00
 -1       153 1.29213E+02 3.25190E+01 0.00000E+00
 -1       154 1.29876E+02 3.39216E+01 0.00000E+00
 -1       155 1.30749E+02 3.50578E+01 0.00000E+00
 -1       156 1.31824E+02 3.59851E+01 0.00000E+00
 -1       157 1.33163E+02 3.67176E+01 0.00000E+00
 -1       158 1.34690E+02 3.71530E+01 0.00000E+00
 -1       159 1.36201E+02 3.72376E+01 0.00000E+00
 -1       160 1.37679E+02 3.69997E+01 0.00000E+00
 -1       161 1.40353E+02 3.55935E+01 0.00000E+00
 -1       162 1.41397E+02 3.44966E+01 0.00000E+00
 -1       163 1.42183E+02 3.31956E+01 0.00000E+00
 -1       164 1.42669E+02 3.17573E+01 0.00000E+00
 -1       165 2.59800E+00 4.55750E+01 0.00000E+00
 -1       166 2.59800E+00 4.26250E+01 0.00000E+00
 -1       167 2.59800E+00 3.96750E+01 0.00000E+00
 -1       168 2.59800E+00 3.67250E+01 0.00000E+00
 -1       169 2.59800E+00 3.38250E+01 0.00000E+00
 -1       170 2.59800E+00 3.08750E+01 0.00000E+00
 -1       171 2.59800E+00 2.79250E+01 0.00000E+00
 -1       172 2.59800E+00 2.49750E+01 0.00000E+00
 -1       173 2.59800E+00 2.20250E+01 0.00000E+00
 -1       174 2.59800E+00 1.90750E+01 0.00000E+00
 -1       175 2.59800E+00 1.61750E+01 0.00000E+00
 -1       176 2.59800E+00 1.32250E+01 0.00000E+00
 -1       177 2.59800E+00 1.02750E+01 0.00000E+00
 -1       178 2.59800E+00 7.32500E+00 0.00000E+00
 -1       179 2.59800E+00 4.37500E+00 0.00000E+00
 -1       180 2.87400E+00 2.18750E+00 0.00000E+00
 -1       181 4.65000E+00 4.74020E+01 0.00000E+00
 -1       182 7.65000E+00 4.74020E+01 0.00000E+00
 -1       183 1.06500E+01 4.74020E+01 0.00000E+00
 -1       184 1.36500E+01 4.74020E+01 0.00000E+00
 -1       185 1.66500E+01 4.74020E+01 0.00000E+00
 -1       186 1.96500E+01 4.74020E+01 0.00000E+00
 -1       187 2.26500E+01 4.74020E+01 0.00000E+00
 -1       188 2.56500E+01 4.74020E+01 0.00000E+00
 -1       189 2.86500E+01 4.74020E+01 0.00000E+00
 -1       190 3.16500E+01 4.74020E+01 0.00000E+00
 -1       191 3.46500E+01 4.74020E+01 0.00000E+00
 -1       192 3.76500E+01 4.74020E+01 0.00000E+00
 -1       193 4.06500E+01 4.74020E+01 0.00000E+00
 -1       194 4.36500E+01 4.74020E+01 0.00000E+00
 -1       195 4.66500E+01 4.74020E+01 0.00000E+00
 -1       196 4.96500E+01 4.74020E+01 0.00000E+00
 -1       197 5.26500E+01 4.74020E+01 0.00000E+00
 -1       198 5.56500E+01 4.74020E+01 0.00000E+00
 -1       199 5.86500E+01 4.74020E+01 0.00000E+00
 -1       200 6.16500E+01 4.74020E+01 0.00000E+00
 -1       201 6.46500E+01 4.74020E+01 0.00000E+00
 -1       202 6.76500E+01 4.74020E+01 0.00000E+00
 -1       203 7.06500E+01 4.74020E+01 0.00000E+00
 -1       204 7.36500E+01 4.74020E+01 0.00000E+00
 -1       205 7.66500E+01 4.74020E+01 0.00000E+00
 -1       206 7.96500E+01 4.74020E+01 0.00000E+00
 -1       207 8.26500E+01 4.74020E+01 0.00000E+00
 -1       208 8.56500E+01 4.74020E+01 0.00000E+00
 -1       209 8.86500E+01 4.74020E+01 0.00000E+00
 -1       210 9.16500E+01 4.74020E+01 0.00000E+00
 -1       211 9.46500E+01 4.74020E+01 0.00000E+00
 -1       212 9.76500E+01 4.74020E+01 0.00000E+00
 -1       213 1.00650E+02 4.74020E+01 0.00000E+00
 -1       214 1.03650E+02 4.74020E+01 0.00000E+00
 -1       215 1.06650E+02 4.74020E+01 0.00000E+00
 -1       216 1.09650E+02 4.74020E+01 0.00000E+00
 -1       217 1.12650E+02 4.74020E+01 0.00000E+00
 -1       218 1.15650E+02 4.74020E+01 0.00000E+00
 -1       219 1.18650E+02 4.74020E+01 0.00000E+00
 -1       220 1.21650E+02 4.74020E+01 0.00000E+00
 -1       221 1.24650E+02 4.74020E+01 0.00000E+00
 -1       222 1.27650E+02 4.74020E+01 0.00000E+00
 -1       223 1.30650E+02 4.74020E+01 0.00000E+00
 -1       224 1.33650E+02 4.74020E+01 0.00000E+00
 -1       225 1.36650E+02 4.74020E+01 0.00000E+00
 -1       226 1.39650E+02 4.74020E+01 0.00000E+00
 -1       227 1.42650E+02 4.74020E+01 0.00000E+00
 -1       228 1.45650E+02 4.74020E+01 0.00000E+00
 -1       229 5.87400E+00 2.18750E+00 0.00000E+00
 -1       230 8.87400E+00 2.18750E+00 0.00000E+00
 -1       231 1.18740E+01 2.18750E+00 0.00000E+00
 -1       232 1.48740E+01 2.18750E+00 0.00000E+00
 -1       233 1.78740E+01 2.18750E+00 0.00000E+00
 -1       234 2.08740E+01 2.18750E+00 0.00000E+00
 -1       235 2.38740E+01 2.18750E+00 0.00000E+00
 -1       236 2.68740E+01 2.18750E+00 0.00000E+00
 -1       237 2.98740E+01 2.18750E+00 0.00000E+00
 -1       238 3.28740E+01 2.18750E+00 0.00000E+00
 -1       239 3.58740E+01 2.18750E+00 0.00000E+00
 -1       240 3.88740E+01 2.18750E+00 0.00000E+00
 -1       241 4.18740E+01 2.18750E+00 0.00000E+00
 -1       242 4.48740E+01 2.18750E+00 0.00000E+00
 -1       243 4.78740E+01 2.18750E+00 0.00000E+00
 -1       244 5.08740E+01 2.18750E+00 0.00000E+00
 -1       245 5.38740E+01 2.18750E+00 0.00000E+00
 -1       246 5.68740E+01 2.18750E+00 0.00000E+00
 -1       247 5.98740E+01 2.18750E+00 0.00000E+00
 -1       248 6.28740E+01 2.18750E+00 0.00000E+00
 -1       249 6.58740E+01 2.18750E+00 0.00000E+00
 -1       250 6.88740E+01 2.18750E+00 0.00000E+00
 -1       251 7.18740E+01 2.18750E+00 0.00000E+00
 -1       252 7.48740E+01 2.18750E+00 0.00000E+00
 -1       253 7.78740E+01 2.18750E+00 0.00000E+00
 -1       254 8.08740E+01 2.18750E+00 0.00000E+00
 -1       255 8.38740E+01 2.18750E+00 0.00000E+00
 -1       256 8.68740E+01 2.18750E+00 0.00000E+00
 -1       257 8.98740E+01 2.18750E+00 0.00000E+00
 -1       258 9.28740E+01 2.18750E+00 0.00000E+00
 -1       259 9.58740E+01 2.18750E+00 0.00000E+00
 -1       260 9.88740E+01 2.18750E+00 0.00000E+00
 -1       261 1.01874E+02 2.18750E+00 0.00000E+00
 -1       262 1.04874E+02 2.18750E+00 0.00000E+00
 -1       263 1.07874E+02 2.18750E+00 0.00000E+00
 -1       264 1.10874E+02 2.18750E+00 0.00000E+00
 -1       265 1.13874E+02 2.18750E+00 0.00000E+00
 -1       266 1.16874E+02 2.18750E+00 0.00000E+00
 -1       267 1.19874E+02 2.18750E+00 0.00000E+00
 -1       268 1.22874E+02 2.18750E+00 0.00000E+00
 -1       269 1.25874E+02 2.18750E+00 0.00000E+00
 -1       270 1.28874E+02 2.18750E+00 0.00000E+00
 -1       271 1.31874E+02 2.18750E+00 0.00000E+00
 -1       272 1.34874E+02 2.18750E+00 0.00000E+00
 -1       273 1.37874E+02 2.18750E+00 0.00000E+00
 -1       274 1.40874E+02 2.18750E+00 0.00000E+00
 -1       275 1.43874E+02 2.18750E+00 0.00000E+00
 -1       276 1.46874E+02 2.18750E+00 0.00000E+00
 -1       277 1.47402E+02 4.55000E+00 0.00000E+00
 -1       278 1.47402E+02 7.60000E+00 0.00000E+00
 -1       279 1.47402E+02 1.06000E+01 0.00000E+00
 -1       280 1.47402E+02 1.36500E+01 0.00000E+00
 -1       281 1.47402E+02 1.66500E+01 0.00000E+00
 -1       282 1.47402E+02 1.96500E+01 0.00000E+00
 -1       283 1.47402E+02 2.26500E+01 0.00000E+00
 -1       284 1.47402E+02 2.52000E+01 0.00000E+00
 -1       285 1.47402E+02 2.76000E+01 0.00000E+00
 -1       286 1.47402E+02 2.98500E+01 0.00000E+00
 -1       287 1.48117E+02 3.44750E+01 0.00000E+00
 -1       288 1.48117E+02 3.68750E+01 0.00000E+00
 -1       289 1.48117E+02 3.98750E+01 0.00000E+00
 -1       290 1.48117E+02 4.29250E+01 0.00000E+00
 -1       291 1.46884E+02 4.51635E+01 0.00000E+00
 -1       292 1.44275E+02 2.92519E+01 0.00000E+00
 -1       293 1.43630E+02 2.75174E+01 0.00000E+00
 -1       294 1.42998E+02 2.58265E+01 0.00000E+00
 -1       295 1.41716E+02 2.45674E+01 0.00000E+00
 -1       296 1.40422E+02 2.34833E+01 0.00000E+00
 -1       297 1.38862E+02 2.26596E+01 0.00000E+00
 -1       298 1.37166E+02 2.20993E+01 0.00000E+00
 -1       299 1.35308E+02 2.18482E+01 0.00000E+00
 -1       300 1.33561E+02 2.23932E+01 0.00000E+00
 -1       301 1.31908E+02 2.28889E+01 0.00000E+00
 -1       302 1.30282E+02 2.38085E+01 0.00000E+00
 -1       303 1.29056E+02 2.52488E+01 0.00000E+00
 -1       304 1.28124E+02 2.68646E+01 0.00000E+00
 -1       305 1.27818E+02 2.86370E+01 0.00000E+00
 -1       306 1.27497E+02 3.03688E+01 0.00000E+00
 -1       307 1.27870E+02 3.20929E+01 0.00000E+00
 -1       308 1.28297E+02 3.38100E+01 0.00000E+00
 -1       309 1.29351E+02 3.52284E+01 0.00000E+00
 -1       310 1.30495E+02 3.64397E+01 0.00000E+00
 -1       311 1.31831E+02 3.75619E+01 0.00000E+00
 -1       312 1.33571E+02 3.81818E+01 0.00000E+00
 -1       313 1.35377E+02 3.84058E+01 0.00000E+00
 -1       314 1.37132E+02 3.83157E+01 0.00000E+00
 -1       315 1.38834E+02 3.79408E+01 0.00000E+00
 -1       316 1.40420E+02 3.71076E+01 0.00000E+00
 -1       317 1.41753E+02 3.58809E+01 0.00000E+00
 -1       318 1.42827E+02 3.44732E+01 0.00000E+00
 -1       319 1.43574E+02 3.28649E+01 0.00000E+00
 -1       320 1.43957E+02 3.11338E+01 0.00000E+00
 -1       321 1.48117E+02 3.24250E+01 0.00000E+00
 -1       322 5.19600E+00 4.11500E+01 0.00000E+00
 -1       323 5.19600E+00 4.41000E+01 0.00000E+00
 -1       324 5.19600E+00 3.52750E+01 0.00000E+00
 -1       325 5.19600E+00 3.23250E+01 0.00000E+00
 -1       326 5.19600E+00 2.93750E+01 0.00000E+00
 -1       327 5.19600E+00 2.64250E+01 0.00000E+00
 -1       328 5.19600E+00 2.34750E+01 0.00000E+00
 -1       329 5.19600E+00 2.05250E+01 0.00000E+00
 -1       330 5.19600E+00 1.76250E+01 0.00000E+00
 -1       331 5.19600E+00 1.46750E+01 0.00000E+00
 -1       332 5.19600E+00 1.17250E+01 0.00000E+00
 -1       333 5.19600E+00 8.77500E+00 0.00000E+00
 -1       334 5.19600E+00 5.82500E+00 0.00000E+00
 -1       335 5.53500E+00 4.00625E+00 0.00000E+00
 -1       336 8.53500E+00 4.00625E+00 0.00000E+00
 -1       337 9.15000E+00 4.48040E+01 0.00000E+00
 -1       338 1.21500E+01 4.48040E+01 0.00000E+00
 -1       339 1.51500E+01 4.48040E+01 0.00000E+00
 -1       340 1.81500E+01 4.48040E+01 0.00000E+00
 -1       341 2.11500E+01 4.48040E+01 0.00000E+00
 -1       342 2.41500E+01 4.48040E+01 0.00000E+00
 -1       343 2.71500E+01 4.48040E+01 0.00000E+00
 -1       344 3.01500E+01 4.48040E+01 0.00000E+00
 -1       345 3.31500E+01 4.48040E+01 0.00000E+00
 -1       346 3.61500E+01 4.48040E+01 0.00000E+00
 -1       347 3.91500E+01 4.48040E+01 0.00000E+00
 -1       348 4.21500E+01 4.48040E+01 0.00000E+00
 -1       349 4.51500E+01 4.48040E+01 0.00000E+00
 -1       350 4.81500E+01 4.48040E+01 0.00000E+00
 -1       351 5.11500E+01 4.48040E+01 0.00000E+00
 -1       352 5.41500E+01 4.48040E+01 0.00000E+00
 -1       353 5.71500E+01 4.48040E+01 0.00000E+00
 -1       354 6.01500E+01 4.48040E+01 0.00000E+00
 -1       355 6.31500E+01 4.48040E+01 0.00000E+00
 -1       356 6.61500E+01 4.48040E+01 0.00000E+00
 -1       357 6.91500E+01 4.48040E+01 0.00000E+00
 -1       358 7.21500E+01 4.48040E+01 0.00000E+00
 -1       359 7.51500E+01 4.48040E+01 0.00000E+00
 -1       360 7.81500E+01 4.48040E+01 0.00000E+00
 -1       361 8.11500E+01 4.48040E+01 0.00000E+00
 -1       362 8.41500E+01 4.48040E+01 0.00000E+00
 -1       363 8.71500E+01 4.48040E+01 0.00000E+00
 -1       364 9.01500E+01 4.48040E+01 0.00000E+00
 -1       365 9.31500E+01 4.48040E+01 0.00000E+00
 -1       366 9.61500E+01 4.48040E+01 0.00000E+00
 -1       367 9.91500E+01 4.48040E+01 0.00000E+00
 -1       368 1.02150E+02 4.48040E+01 0.00000E+00
 -1       369 1.05150E+02 4.48040E+01 0.00000E+00
 -1       370 1.08150E+02 4.48040E+01 0.00000E+00
 -1       371 1.11150E+02 4.48040E+01 0.00000E+00
 -1       372 1.14150E+02 4.48040E+01 0.00000E+00
 -1       373 1.17150E+02 4.48040E+01 0.00000E+00
 -1       374 1.20150E+02 4.48040E+01 0.00000E+00
 -1       375 1.23150E+02 4.48040E+01 0.00000E+00
 -1       376 1.26150E+02 4.48040E+01 0.00000E+00
 -1       377 1.29150E+02 4.48040E+01 0.00000E+00
 -1       378 1.32150E+02 4.48040E+01 0.00000E+00
 -1       379 1.35150E+02 4.48040E+01 0.00000E+00
 -1       380 1.38150E+02 4.48040E+01 0.00000E+00
 -1       381 1.41150E+02 4.48040E+01 0.00000E+00
 -1       382 1.44017E+02 4.49837E+01 0.00000E+00
 -1       383 1.45564E+02 4.14000E+01 0.00000E+00
 -1       384 1.15350E+01 4.00625E+00 0.00000E+00
 -1       385 1.45350E+01 4.00625E+00 0.00000E+00
 -1       386 1.75350E+01 4.00625E+00 0.00000E+00
 -1       387 2.05350E+01 4.00625E+00 0.00000E+00
 -1       388 2.35350E+01 4.00625E+00 0.00000E+00
 -1       389 2.65350E+01 4.00625E+00 0.00000E+00
 -1       390 2.95350E+01 4.00625E+00 0.00000E+00
 -1       391 3.25350E+01 4.00625E+00 0.00000E+00
 -1       392 3.55350E+01 4.00625E+00 0.00000E+00
 -1       393 3.85350E+01 4.00625E+00 0.00000E+00
 -1       394 4.15350E+01 4.00625E+00 0.00000E+00
 -1       395 4.45350E+01 4.00625E+00 0.00000E+00
 -1       396 4.75350E+01 4.00625E+00 0.00000E+00
 -1       397 5.05350E+01 4.00625E+00 0.00000E+00
 -1       398 5.35350E+01 4.00625E+00 0.00000E+00
 -1       399 5.65350E+01 4.00625E+00 0.00000E+00
 -1       400 5.95350E+01 4.00625E+00 0.00000E+00
 -1       401 6.25350E+01 4.00625E+00 0.00000E+00
 -1       402 6.55350E+01 4.00625E+00 0.00000E+00
 -1       403 6.85350E+01 4.00625E+00 0.00000E+00
 -1       404 7.15350E+01 4.00625E+00 0.00000E+00
 -1       405 7.45350E+01 4.00625E+00 0.00000E+00
 -1       406 7.75350E+01 4.00625E+00 0.00000E+00
 -1       407 8.05350E+01 4.00625E+00 0.00000E+00
 -1       408 8.35350E+01 4.00625E+00 0.00000E+00
 -1       409 8.65350E+01 4.00625E+00 0.00000E+00
 -1       410 8.95350E+01 4.00625E+00 0.00000E+00
 -1       411 9.25350E+01 4.00625E+00 0.00000E+00
 -1       412 9.55350E+01 4.00625E+00 0.00000E+00
 -1       413 9.85350E+01 4.00625E+00 0.00000E+00
 -1       414 1.01535E+02 4.00625E+00 0.00000E+00
 -1       415 1.04535E+02 4.00625E+00 0.00000E+00
 -1       416 1.07535E+02 4.00625E+00 0.00000E+00
 -1       417 1.10535E+02 4.00625E+00 0.00000E+00
 -1       418 1.13535E+02 4.00625E+00 0.00000E+00
 -1       419 1.16535E+02 4.00625E+00 0.00000E+00
 -1       420 1.19535E+02 4.00625E+00 0.00000E+00
 -1       421 1.22535E+02 4.00625E+00 0.00000E+00
 -1       422 1.25535E+02 4.00625E+00 0.00000E+00
 -1       423 1.28535E+02 4.00625E+00 0.00000E+00
 -1       424 1.31535E+02 4.00625E+00 0.00000E+00
 -1       425 1.34535E+02 4.00625E+00 0.00000E+00
 -1       426 1.37535E+02 4.00625E+00 0.00000E+00
 -1       427 1.40535E+02 4.00625E+00 0.00000E+00
 -1       428 1.43535E+02 4.00625E+00 0.00000E+00
 -1       429 1.45469E+02 4.27812E+00 0.00000E+00
 -1       430 1.44804E+02 1.21250E+01 0.00000E+00
 -1       431 1.44804E+02 9.12500E+00 0.00000E+00
 -1       432 1.46067E+02 3.34500E+01 0.00000E+00
 -1       433 1.45136E+02 6.70156E+00 0.00000E+00
 -1       434 1.44804E+02 1.51250E+01 0.00000E+00
 -1       435 1.44804E+02 1.81250E+01 0.00000E+00
 -1       436 1.44804E+02 2.11250E+01 0.00000E+00
 -1       437 1.45352E+02 2.64000E+01 0.00000E+00
 -1       438 1.45564E+02 3.84000E+01 0.00000E+00
 -1       439 1.45564E+02 3.60000E+01 0.00000E+00
 -1       440 1.45477E+02 3.04228E+01 0.00000E+00
 -1       441 1.45414E+02 2.84114E+01 0.00000E+00
 -1       442 1.43441E+02 2.40927E+01 0.00000E+00
 -1       443 5.19600E+00 3.82125E+01 0.00000E+00
 -1       444 1.40365E+02 2.17030E+01 0.00000E+00
 -1       445 1.38421E+02 2.11487E+01 0.00000E+00
 -1       446 1.36444E+02 2.04402E+01 0.00000E+00
 -1       447 1.33973E+02 2.06434E+01 0.00000E+00
 -1       448 1.32321E+02 2.11391E+01 0.00000E+00
 -1       449 1.30251E+02 2.18558E+01 0.00000E+00
 -1       450 1.28618E+02 2.36338E+01 0.00000E+00
 -1       451 1.27394E+02 2.53675E+01 0.00000E+00
 -1       452 1.26611E+02 2.75164E+01 0.00000E+00
 -1       453 1.26290E+02 2.92481E+01 0.00000E+00
 -1       454 1.26089E+02 3.15750E+01 0.00000E+00
 -1       455 1.26516E+02 3.32921E+01 0.00000E+00
 -1       456 1.27447E+02 3.55423E+01 0.00000E+00
 -1       457 1.28591E+02 3.67536E+01 0.00000E+00
 -1       458 1.30276E+02 3.80575E+01 0.00000E+00
 -1       459 1.32125E+02 3.94874E+01 0.00000E+00
 -1       460 1.34304E+02 3.96633E+01 0.00000E+00
 -1       461 1.36339E+02 3.99899E+01 0.00000E+00
 -1       462 1.38298E+02 3.95577E+01 0.00000E+00
 -1       463 1.40346E+02 3.88943E+01 0.00000E+00
 -1       464 1.42021E+02 3.75097E+01 0.00000E+00
 -1       465 1.43520E+02 3.61160E+01 0.00000E+00
 -1       466 1.44452E+02 3.42504E+01 0.00000E+00
 -1       467 1.45031E+02 3.22789E+01 0.00000E+00
 -1       468 1.41955E+02 2.29677E+01 0.00000E+00
 -1       469 1.45200E+02 2.42382E+01 0.00000E+00
 -1       470 1.46107E+02 3.15966E+01 0.00000E+00
 -1       471 7.79400E+00 3.08500E+01 0.00000E+00
 -1       472 7.79400E+00 3.38000E+01 0.00000E+00
 -1       473 7.79400E+00 2.49500E+01 0.00000E+00
 -1       474 7.79400E+00 2.20000E+01 0.00000E+00
 -1       475 7.79400E+00 1.91000E+01 0.00000E+00
 -1       476 7.79400E+00 1.61500E+01 0.00000E+00
 -1       477 7.79400E+00 1.32000E+01 0.00000E+00
 -1       478 7.79400E+00 1.02500E+01 0.00000E+00
 -1       479 7.79400E+00 7.30000E+00 0.00000E+00
 -1       480 8.16450E+00 5.65312E+00 0.00000E+00
 -1       481 1.30350E+01 6.60425E+00 0.00000E+00
 -1       482 1.06500E+01 4.22060E+01 0.00000E+00
 -1       483 1.43683E+02 2.22296E+01 0.00000E+00
 -1       484 1.36500E+01 4.22060E+01 0.00000E+00
 -1       485 1.66500E+01 4.22060E+01 0.00000E+00
 -1       486 1.96500E+01 4.22060E+01 0.00000E+00
 -1       487 2.26500E+01 4.22060E+01 0.00000E+00
 -1       488 2.56500E+01 4.22060E+01 0.00000E+00
 -1       489 2.86500E+01 4.22060E+01 0.00000E+00
 -1       490 3.16500E+01 4.22060E+01 0.00000E+00
 -1       491 3.46500E+01 4.22060E+01 0.00000E+00
 -1       492 3.76500E+01 4.22060E+01 0.00000E+00
 -1       493 4.06500E+01 4.22060E+01 0.00000E+00
 -1       494 4.36500E+01 4.22060E+01 0.00000E+00
 -1       495 4.66500E+01 4.22060E+01 0.00000E+00
 -1       496 4.96500E+01 4.22060E+01 0.00000E+00
 -1       497 5.26500E+01 4.22060E+01 0.00000E+00
 -1       498 5.56500E+01 4.22060E+01 0.00000E+00
 -1       499 5.86500E+01 4.22060E+01 0.00000E+00
 -1       500 6.16500E+01 4.22060E+01 0.00000E+00
 -1       501 6.46500E+01 4.22060E+01 0.00000E+00
 -1       502 6.76500E+01 4.22060E+01 0.00000E+00
 -1       503 7.06500E+01 4.22060E+01 0.00000E+00
 -1       504 7.36500E+01 4.22060E+01 0.00000E+00
 -1       505 7.66500E+01 4.22060E+01 0.00000E+00
 -1       506 7.96500E+01 4.22060E+01 0.00000E+00
 -1       507 8.26500E+01 4.22060E+01 0.00000E+00
 -1       508 8.56500E+01 4.22060E+01 0.00000E+00
 -1       509 8.86500E+01 4.22060E+01 0.00000E+00
 -1       510 9.16500E+01 4.22060E+01 0.00000E+00
 -1       511 9.46500E+01 4.22060E+01 0.00000E+00
 -1       512 9.76500E+01 4.22060E+01 0.00000E+00
 -1       513 1.00650E+02 4.22060E+01 0.00000E+00
 -1       514 1.03650E+02 4.22060E+01 0.00000E+00
 -1       515 1.06650E+02 4.22060E+01 0.00000E+00
 -1       516 1.09650E+02 4.22060E+01 0.00000E+00
 -1       517 1.12650E+02 4.22060E+01 0.00000E+00
 -1       518 1.15650E+02 4.22060E+01 0.00000E+00
 -1       519 1.18650E+02 4.22060E+01 0.00000E+00
 -1       520 1.21650E+02 4.22060E+01 0.00000E+00
 -1       521 1.24650E+02 4.22060E+01 0.00000E+00
 -1       522 1.27650E+02 4.22060E+01 0.00000E+00
 -1       523 1.30650E+02 4.22060E+01 0.00000E+00
 -1       524 1.36650E+02 4.25862E+01 0.00000E+00
 -1       525 1.39650E+02 4.25862E+01 0.00000E+00
 -1       526 1.60350E+01 6.60425E+00 0.00000E+00
 -1       527 1.05997E+01 6.12869E+00 0.00000E+00
 -1       528 1.90350E+01 6.60425E+00 0.00000E+00
 -1       529 2.20350E+01 6.60425E+00 0.00000E+00
 -1       530 2.50350E+01 6.60425E+00 0.00000E+00
 -1       531 2.80350E+01 6.60425E+00 0.00000E+00
 -1       532 3.10350E+01 6.60425E+00 0.00000E+00
 -1       533 3.40350E+01 6.60425E+00 0.00000E+00
 -1       534 3.70350E+01 6.60425E+00 0.00000E+00
 -1       535 4.00350E+01 6.60425E+00 0.00000E+00
 -1       536 4.30350E+01 6.60425E+00 0.00000E+00
 -1       537 4.60350E+01 6.60425E+00 0.00000E+00
 -1       538 4.90350E+01 6.60425E+00 0.00000E+00
 -1       539 5.20350E+01 6.60425E+00 0.00000E+00
 -1       540 5.50350E+01 6.60425E+00 0.00000E+00
 -1       541 5.80350E+01 6.60425E+00 0.00000E+00
 -1       542 6.10350E+01 6.60425E+00 0.00000E+00
 -1       543 6.40350E+01 6.60425E+00 0.00000E+00
 -1       544 6.70350E+01 6.60425E+00 0.00000E+00
 -1       545 7.00350E+01 6.60425E+00 0.00000E+00
 -1       546 7.30350E+01 6.60425E+00 0.00000E+00
 -1       547 7.60350E+01 6.60425E+00 0.00000E+00
 -1       548 7.90350E+01 6.60425E+00 0.00000E+00
 -1       549 8.20350E+01 6.60425E+00 0.00000E+00
 -1       550 8.50350E+01 6.60425E+00 0.00000E+00
 -1       551 8.80350E+01 6.60425E+00 0.00000E+00
 -1       552 9.10350E+01 6.60425E+00 0.00000E+00
 -1       553 9.40350E+01 6.60425E+00 0.00000E+00
 -1       554 9.70350E+01 6.60425E+00 0.00000E+00
 -1       555 1.00035E+02 6.60425E+00 0.00000E+00
 -1       556 1.03035E+02 6.60425E+00 0.00000E+00
 -1       557 1.06035E+02 6.60425E+00 0.00000E+00
 -1       558 1.09035E+02 6.60425E+00 0.00000E+00
 -1       559 1.12035E+02 6.60425E+00 0.00000E+00
 -1       560 1.15035E+02 6.60425E+00 0.00000E+00
 -1       561 1.18035E+02 6.60425E+00 0.00000E+00
 -1       562 1.21035E+02 6.60425E+00 0.00000E+00
 -1       563 1.24035E+02 6.60425E+00 0.00000E+00
 -1       564 1.27035E+02 6.60425E+00 0.00000E+00
 -1       565 1.30035E+02 6.60425E+00 0.00000E+00
 -1       566 1.33035E+02 6.60425E+00 0.00000E+00
 -1       567 1.36035E+02 6.60425E+00 0.00000E+00
 -1       568 1.39035E+02 6.60425E+00 0.00000E+00
 -1       569 1.42035E+02 6.60425E+00 0.00000E+00
 -1       570 1.42206E+02 1.66250E+01 0.00000E+00
 -1       571 1.42206E+02 1.96250E+01 0.00000E+00
 -1       572 1.42206E+02 1.06250E+01 0.00000E+00
 -1       573 1.42206E+02 1.36250E+01 0.00000E+00
 -1       574 1.43179E+02 3.99000E+01 0.00000E+00
 -1       575 7.92300E+00 4.16780E+01 0.00000E+00
 -1       576 1.25706E+02 2.59695E+01 0.00000E+00
 -1       577 1.35041E+02 1.84984E+01 0.00000E+00
 -1       578 7.79400E+00 2.79000E+01 0.00000E+00
 -1       579 1.38011E+02 1.91799E+01 0.00000E+00
 -1       580 1.28295E+02 2.16982E+01 0.00000E+00
 -1       581 1.39955E+02 1.97342E+01 0.00000E+00
 -1       582 1.32702E+02 1.94089E+01 0.00000E+00
 -1       583 1.30254E+02 3.99968E+01 0.00000E+00