    1C
    1UUSER                                                              
    1UDATE              27.october.2022                                 
    1UTIME              00:40:15                                        
    1UHOST                                                              
    1UPGM               CalculiX                                        
    1UVERSION           Version 2.17                             
    1UCOMPILETIME       Thu Jul 23 21:43:50 CEST 2020                    
    1UDIR                                                               
    1UDBN                                                               
    1UMAT    1SOLIDMATERIAL                                             
    2C                          4294                                     1
 -1         1 7.09091E+01 4.38819E+01 0.00000E+00
 -1         2 8.09601E+01 3.75818E+01 0.00000E+00
 -1         3 1.50000E+02 0.00000E+00 0.00000E+00
 -1         4 1.50000E+02 5.00000E+01 0.00000E+00
 -1         5 0.00000E+00 0.00000E+00 0.00000E+00
 -1         6 0.00000E+00 5.00000E+01 0.00000E+00
 -1         7 0.00000E+00 4.70500E+01 0.00000E+00
 -1         8 0.00000E+00 4.41000E+01 0.00000E+00
 -1         9 0.00000E+00 4.11500E+01 0.00000E+00
 -1        10 0.00000E+00 3.82000E+01 0.00000E+00
 -1        11 0.00000E+00 3.52500E+01 0.00000E+00
 -1        12 0.00000E+00 3.23500E+01 0.00000E+00
 -1        13 0.00000E+00 2.94000E+01 0.00000E+00
 -1        14 0.00000E+00 2.64500E+01 0.00000E+00
 -1        15 0.00000E+00 2.35000E+01 0.00000E+00
 -1        16 0.00000E+00 2.05500E+01 0.00000E+00
 -1        17 0.00000E+00 1.76000E+01 0.00000E+00
 -1        18 0.00000E+00 1.47000E+01 0.00000E+00
 -1        19 0.00000E+00 1.17500E+01 0.00000E+00
 -1        20 0.00000E+00 8.80000E+00 0.00000E+00
 -1        21 0.00000E+00 5.85000E+00 0.00000E+00
 -1        22 0.00000E+00 2.90000E+00 0.00000E+00
 -1        23 3.00000E+00 5.00000E+01 0.00000E+00
 -1        24 6.00000E+00 5.00000E+01 0.00000E+00
 -1        25 9.00000E+00 5.00000E+01 0.00000E+00
 -1        26 1.20000E+01 5.00000E+01 0.00000E+00
 -1        27 1.50000E+01 5.00000E+01 0.00000E+00
 -1        28 1.80000E+01 5.00000E+01 0.00000E+00
 -1        29 2.10000E+01 5.00000E+01 0.00000E+00
 -1        30 2.38500E+01 5.00000E+01 0.00000E+00
 -1        31 2.68500E+01 5.00000E+01 0.00000E+00
 -1        32 2.98500E+01 5.00000E+01 0.00000E+00
 -1        33 3.28500E+01 5.00000E+01 0.00000E+00
 -1        34 3.58500E+01 5.00000E+01 0.00000E+00
 -1        35 3.88500E+01 5.00000E+01 0.00000E+00
 -1        36 4.18500E+01 5.00000E+01 0.00000E+00
 -1        37 4.47000E+01 5.00000E+01 0.00000E+00
 -1        38 4.77000E+01 5.00000E+01 0.00000E+00
 -1        39 5.07000E+01 5.00000E+01 0.00000E+00
 -1        40 5.37000E+01 5.00000E+01 0.00000E+00
 -1        41 5.67000E+01 5.00000E+01 0.00000E+00
 -1        42 5.97000E+01 5.00000E+01 0.00000E+00
 -1        43 6.27000E+01 5.00000E+01 0.00000E+00
 -1        44 6.54000E+01 5.00000E+01 0.00000E+00
 -1        45 6.79500E+01 5.00000E+01 0.00000E+00
 -1        46 7.02000E+01 5.00000E+01 0.00000E+00
 -1        47 7.21500E+01 5.00000E+01 0.00000E+00
 -1        48 7.44000E+01 5.00000E+01 0.00000E+00
 -1        49 7.65000E+01 5.00000E+01 0.00000E+00
 -1        50 7.89000E+01 5.00000E+01 0.00000E+00
 -1        51 8.16000E+01 5.00000E+01 0.00000E+00
 -1        52 8.46000E+01 5.00000E+01 0.00000E+00
 -1        53 8.74500E+01 5.00000E+01 0.00000E+00
 -1        54 9.04500E+01 5.00000E+01 0.00000E+00
 -1        55 9.34500E+01 5.00000E+01 0.00000E+00
 -1        56 9.64500E+01 5.00000E+01 0.00000E+00
 -1        57 9.94500E+01 5.00000E+01 0.00000E+00
 -1        58 1.02450E+02 5.00000E+01 0.00000E+00
 -1        59 1.05450E+02 5.00000E+01 0.00000E+00
 -1        60 1.08300E+02 5.00000E+01 0.00000E+00
 -1        61 1.11300E+02 5.00000E+01 0.00000E+00
 -1        62 1.14300E+02 5.00000E+01 0.00000E+00
 -1        63 1.17300E+02 5.00000E+01 0.00000E+00
 -1        64 1.20300E+02 5.00000E+01 0.00000E+00
 -1        65 1.23300E+02 5.00000E+01 0.00000E+00
 -1        66 1.26300E+02 5.00000E+01 0.00000E+00
 -1        67 1.29150E+02 5.00000E+01 0.00000E+00
 -1        68 1.32150E+02 5.00000E+01 0.00000E+00
 -1        69 1.35150E+02 5.00000E+01 0.00000E+00
 -1        70 1.38150E+02 5.00000E+01 0.00000E+00
 -1        71 1.41150E+02 5.00000E+01 0.00000E+00
 -1        72 1.44150E+02 5.00000E+01 0.00000E+00
 -1        73 1.47150E+02 5.00000E+01 0.00000E+00
 -1        74 3.15000E+00 0.00000E+00 0.00000E+00
 -1        75 6.15000E+00 0.00000E+00 0.00000E+00
 -1        76 9.15000E+00 0.00000E+00 0.00000E+00
 -1        77 1.21500E+01 0.00000E+00 0.00000E+00
 -1        78 1.51500E+01 0.00000E+00 0.00000E+00
 -1        79 1.81500E+01 0.00000E+00 0.00000E+00
 -1        80 2.11500E+01 0.00000E+00 0.00000E+00
 -1        81 2.41500E+01 0.00000E+00 0.00000E+00
 -1        82 2.71500E+01 0.00000E+00 0.00000E+00
 -1        83 3.01500E+01 0.00000E+00 0.00000E+00
 -1        84 3.31500E+01 0.00000E+00 0.00000E+00
 -1        85 3.61500E+01 0.00000E+00 0.00000E+00
 -1        86 3.91500E+01 0.00000E+00 0.00000E+00
 -1        87 4.21500E+01 0.00000E+00 0.00000E+00
 -1        88 4.51500E+01 0.00000E+00 0.00000E+00
 -1        89 4.81500E+01 0.00000E+00 0.00000E+00
 -1        90 5.11500E+01 0.00000E+00 0.00000E+00
 -1        91 5.41500E+01 0.00000E+00 0.00000E+00
 -1        92 5.71500E+01 0.00000E+00 0.00000E+00
 -1        93 6.01500E+01 0.00000E+00 0.00000E+00
 -1        94 6.31500E+01 0.00000E+00 0.00000E+00
 -1        95 6.61500E+01 0.00000E+00 0.00000E+00
 -1        96 6.91500E+01 0.00000E+00 0.00000E+00
 -1        97 7.21500E+01 0.00000E+00 0.00000E+00
 -1        98 7.51500E+01 0.00000E+00 0.00000E+00
 -1        99 7.81500E+01 0.00000E+00 0.00000E+00
 -1       100 8.11500E+01 0.00000E+00 0.00000E+00
 -1       101 8.41500E+01 0.00000E+00 0.00000E+00
 -1       102 8.71500E+01 0.00000E+00 0.00000E+00
 -1       103 9.01500E+01 0.00000E+00 0.00000E+00
 -1       104 9.31500E+01 0.00000E+00 0.00000E+00
 -1       105 9.61500E+01 0.00000E+00 0.00000E+00
 -1       106 9.91500E+01 0.00000E+00 0.00000E+00
 -1       107 1.02150E+02 0.00000E+00 0.00000E+00
 -1       108 1.05150E+02 0.00000E+00 0.00000E+00
 -1       109 1.08150E+02 0.00000E+00 0.00000E+00
 -1       110 1.11150E+02 0.00000E+00 0.00000E+00
 -1       111 1.14150E+02 0.00000E+00 0.00000E+00
 -1       112 1.17150E+02 0.00000E+00 0.00000E+00
 -1       113 1.20150E+02 0.00000E+00 0.00000E+00
 -1       114 1.23150E+02 0.00000E+00 0.00000E+00
 -1       115 1.26150E+02 0.00000E+00 0.00000E+00
 -1       116 1.29150E+02 0.00000E+00 0.00000E+00
 -1       117 1.32150E+02 0.00000E+00 0.00000E+00
 -1       118 1.35150E+02 0.00000E+00 0.00000E+00
 -1       119 1.38150E+02 0.00000E+00 0.00000E+00
 -1       120 1.41150E+02 0.00000E+00 0.00000E+00
 -1       121 1.44150E+02 0.00000E+00 0.00000E+00
 -1       122 1.47150E+02 0.00000E+00 0.00000E+00
 -1       123 1.50000E+02 2.95000E+00 0.00000E+00
 -1       124 1.50000E+02 5.90000E+00 0.00000E+00
 -1       125 1.50000E+02 8.85000E+00 0.00000E+00
 -1       126 1.50000E+02 1.18000E+01 0.00000E+00
 -1       127 1.50000E+02 1.47500E+01 0.00000E+00
 -1       128 1.50000E+02 1.76500E+01 0.00000E+00
 -1       129 1.50000E+02 2.06000E+01 0.00000E+00
 -1       130 1.50000E+02 2.35500E+01 0.00000E+00
 -1       131 1.50000E+02 2.65000E+01 0.00000E+00
 -1       132 1.50000E+02 2.94500E+01 0.00000E+00
 -1       133 1.50000E+02 3.24000E+01 0.00000E+00
 -1       134 1.50000E+02 3.53000E+01 0.00000E+00
 -1       135 1.50000E+02 3.82500E+01 0.00000E+00
 -1       136 1.50000E+02 4.12000E+01 0.00000E+00
 -1       137 1.50000E+02 4.41500E+01 0.00000E+00
 -1       138 1.50000E+02 4.71000E+01 0.00000E+00
 -1       139 8.08177E+01 3.61770E+01 0.00000E+00
 -1       140 8.03740E+01 3.47779E+01 0.00000E+00
 -1       141 7.96447E+01 3.34971E+01 0.00000E+00
 -1       142 7.86171E+01 3.23557E+01 0.00000E+00
 -1       143 7.74317E+01 3.15033E+01 0.00000E+00
 -1       144 7.59910E+01 3.08829E+01 0.00000E+00
 -1       145 7.42844E+01 3.05893E+01 0.00000E+00
 -1       146 7.28600E+01 3.06688E+01 0.00000E+00
 -1       147 7.13906E+01 3.10704E+01 0.00000E+00
 -1       148 7.00907E+01 3.17485E+01 0.00000E+00
 -1       149 6.89875E+01 3.26550E+01 0.00000E+00
 -1       150 6.80936E+01 3.37629E+01 0.00000E+00
 -1       151 6.74103E+01 3.51119E+01 0.00000E+00
 -1       152 6.70222E+01 3.66515E+01 0.00000E+00
 -1       153 6.69782E+01 3.80854E+01 0.00000E+00
 -1       154 6.72304E+01 3.95082E+01 0.00000E+00
 -1       155 6.78021E+01 4.09104E+01 0.00000E+00
 -1       156 6.86189E+01 4.21063E+01 0.00000E+00
 -1       157 6.96425E+01 4.30916E+01 0.00000E+00
 -1       158 7.22183E+01 4.43616E+01 0.00000E+00
 -1       159 7.36092E+01 4.45730E+01 0.00000E+00
 -1       160 7.49791E+01 4.45072E+01 0.00000E+00
 -1       161 7.64099E+01 4.41391E+01 0.00000E+00
 -1       162 7.76982E+01 4.35001E+01 0.00000E+00
 -1       163 7.87707E+01 4.26669E+01 0.00000E+00
 -1       164 7.96890E+01 4.16042E+01 0.00000E+00
 -1       165 8.03616E+01 4.04138E+01 0.00000E+00
 -1       166 8.07996E+01 3.90723E+01 0.00000E+00
 -1       167 2.59800E+00 4.55750E+01 0.00000E+00
 -1       168 2.59800E+00 4.26250E+01 0.00000E+00
 -1       169 2.59800E+00 3.96750E+01 0.00000E+00
 -1       170 2.59800E+00 3.67250E+01 0.00000E+00
 -1       171 2.59800E+00 3.38250E+01 0.00000E+00
 -1       172 2.59800E+00 3.08750E+01 0.00000E+00
 -1       173 2.59800E+00 2.79250E+01 0.00000E+00
 -1       174 2.59800E+00 2.49750E+01 0.00000E+00
 -1       175 2.59800E+00 2.20250E+01 0.00000E+00
 -1       176 2.59800E+00 1.90750E+01 0.00000E+00
 -1       177 2.59800E+00 1.61750E+01 0.00000E+00
 -1       178 2.59800E+00 1.32250E+01 0.00000E+00
 -1       179 2.59800E+00 1.02750E+01 0.00000E+00
 -1       180 2.59800E+00 7.32500E+00 0.00000E+00
 -1       181 2.59800E+00 4.37500E+00 0.00000E+00
 -1       182 2.87400E+00 2.18750E+00 0.00000E+00
 -1       183 4.50000E+00 4.74020E+01 0.00000E+00
 -1       184 7.50000E+00 4.74020E+01 0.00000E+00
 -1       185 1.05000E+01 4.74020E+01 0.00000E+00
 -1       186 1.35000E+01 4.74020E+01 0.00000E+00
 -1       187 1.65000E+01 4.74020E+01 0.00000E+00
 -1       188 1.95000E+01 4.74020E+01 0.00000E+00
 -1       189 2.23500E+01 4.74020E+01 0.00000E+00
 -1       190 2.53500E+01 4.74020E+01 0.00000E+00
 -1       191 2.83500E+01 4.74020E+01 0.00000E+00
 -1       192 3.13500E+01 4.74020E+01 0.00000E+00
 -1       193 3.43500E+01 4.74020E+01 0.00000E+00
 -1       194 3.73500E+01 4.74020E+01 0.00000E+00
 -1       195 4.03500E+01 4.74020E+01 0.00000E+00
 -1       196 4.32000E+01 4.74020E+01 0.00000E+00
 -1       197 4.62000E+01 4.74020E+01 0.00000E+00
 -1       198 4.92000E+01 4.74020E+01 0.00000E+00
 -1       199 5.22000E+01 4.74020E+01 0.00000E+00
 -1       200 5.52000E+01 4.74020E+01 0.00000E+00
 -1       201 5.82000E+01 4.74020E+01 0.00000E+00
 -1       202 6.12000E+01 4.74020E+01 0.00000E+00
 -1       203 6.39000E+01 4.74020E+01 0.00000E+00
 -1       204 6.64500E+01 4.74020E+01 0.00000E+00
 -1       205 6.87000E+01 4.74020E+01 0.00000E+00
 -1       206 7.32750E+01 4.81173E+01 0.00000E+00
 -1       207 7.53750E+01 4.81173E+01 0.00000E+00
 -1       208 7.77750E+01 4.81173E+01 0.00000E+00
 -1       209 8.04750E+01 4.81173E+01 0.00000E+00
 -1       210 8.34750E+01 4.81173E+01 0.00000E+00
 -1       211 8.63250E+01 4.81173E+01 0.00000E+00
 -1       212 8.93250E+01 4.81173E+01 0.00000E+00
 -1       213 9.23250E+01 4.81173E+01 0.00000E+00
 -1       214 9.53250E+01 4.81173E+01 0.00000E+00
 -1       215 9.83250E+01 4.81173E+01 0.00000E+00
 -1       216 1.01325E+02 4.81173E+01 0.00000E+00
 -1       217 1.04325E+02 4.81173E+01 0.00000E+00
 -1       218 1.07175E+02 4.81173E+01 0.00000E+00
 -1       219 1.10175E+02 4.81173E+01 0.00000E+00
 -1       220 1.13175E+02 4.81173E+01 0.00000E+00
 -1       221 1.16175E+02 4.81173E+01 0.00000E+00
 -1       222 1.19175E+02 4.81173E+01 0.00000E+00
 -1       223 1.22175E+02 4.81173E+01 0.00000E+00
 -1       224 1.25175E+02 4.81173E+01 0.00000E+00
 -1       225 1.28025E+02 4.81173E+01 0.00000E+00
 -1       226 1.31025E+02 4.81173E+01 0.00000E+00
 -1       227 1.34025E+02 4.81173E+01 0.00000E+00
 -1       228 1.37025E+02 4.81173E+01 0.00000E+00
 -1       229 1.40025E+02 4.81173E+01 0.00000E+00
 -1       230 1.43025E+02 4.81173E+01 0.00000E+00
 -1       231 1.46025E+02 4.81173E+01 0.00000E+00
 -1       232 1.48012E+02 4.76087E+01 0.00000E+00
 -1       233 5.87400E+00 2.18750E+00 0.00000E+00
 -1       234 8.87400E+00 2.18750E+00 0.00000E+00
 -1       235 1.18740E+01 2.18750E+00 0.00000E+00
 -1       236 1.48740E+01 2.18750E+00 0.00000E+00
 -1       237 1.78740E+01 2.18750E+00 0.00000E+00
 -1       238 2.08740E+01 2.18750E+00 0.00000E+00
 -1       239 2.38740E+01 2.18750E+00 0.00000E+00
 -1       240 2.68740E+01 2.18750E+00 0.00000E+00
 -1       241 2.98740E+01 2.18750E+00 0.00000E+00
 -1       242 3.28740E+01 2.18750E+00 0.00000E+00
 -1       243 3.58740E+01 2.18750E+00 0.00000E+00
 -1       244 3.88740E+01 2.18750E+00 0.00000E+00
 -1       245 4.18740E+01 2.18750E+00 0.00000E+00
 -1       246 4.48740E+01 2.18750E+00 0.00000E+00
 -1       247 4.78740E+01 2.18750E+00 0.00000E+00
 -1       248 5.08740E+01 2.18750E+00 0.00000E+00
 -1       249 5.38740E+01 2.18750E+00 0.00000E+00
 -1       250 5.68740E+01 2.18750E+00 0.00000E+00
 -1       251 5.98740E+01 2.18750E+00 0.00000E+00
 -1       252 6.28740E+01 2.18750E+00 0.00000E+00
 -1       253 6.58740E+01 2.18750E+00 0.00000E+00
 -1       254 6.88740E+01 2.18750E+00 0.00000E+00
 -1       255 7.18740E+01 2.18750E+00 0.00000E+00
 -1       256 7.48740E+01 2.18750E+00 0.00000E+00
 -1       257 7.78740E+01 2.18750E+00 0.00000E+00
 -1       258 8.08740E+01 2.18750E+00 0.00000E+00
 -1       259 8.38740E+01 2.18750E+00 0.00000E+00
 -1       260 8.68740E+01 2.18750E+00 0.00000E+00
 -1       261 8.98740E+01 2.18750E+00 0.00000E+00
 -1       262 9.28740E+01 2.18750E+00 0.00000E+00
 -1       263 9.58740E+01 2.18750E+00 0.00000E+00
 -1       264 9.88740E+01 2.18750E+00 0.00000E+00
 -1       265 1.01874E+02 2.18750E+00 0.00000E+00
 -1       266 1.04874E+02 2.18750E+00 0.00000E+00
 -1       267 1.07874E+02 2.18750E+00 0.00000E+00
 -1       268 1.10874E+02 2.18750E+00 0.00000E+00
 -1       269 1.13874E+02 2.18750E+00 0.00000E+00
 -1       270 1.16874E+02 2.18750E+00 0.00000E+00
 -1       271 1.19874E+02 2.18750E+00 0.00000E+00
 -1       272 1.22874E+02 2.18750E+00 0.00000E+00
 -1       273 1.25874E+02 2.18750E+00 0.00000E+00
 -1       274 1.28874E+02 2.18750E+00 0.00000E+00
 -1       275 1.31874E+02 2.18750E+00 0.00000E+00
 -1       276 1.34874E+02 2.18750E+00 0.00000E+00
 -1       277 1.37874E+02 2.18750E+00 0.00000E+00
 -1       278 1.40874E+02 2.18750E+00 0.00000E+00
 -1       279 1.43874E+02 2.18750E+00 0.00000E+00
 -1       280 1.46874E+02 2.18750E+00 0.00000E+00
 -1       281 1.47402E+02 4.42500E+00 0.00000E+00
 -1       282 1.47402E+02 7.37500E+00 0.00000E+00
 -1       283 1.47402E+02 1.03250E+01 0.00000E+00
 -1       284 1.47402E+02 1.32750E+01 0.00000E+00
 -1       285 1.47402E+02 1.61750E+01 0.00000E+00
 -1       286 1.47402E+02 1.91250E+01 0.00000E+00
 -1       287 1.47402E+02 2.20750E+01 0.00000E+00
 -1       288 1.47402E+02 2.50250E+01 0.00000E+00
 -1       289 1.47402E+02 2.79750E+01 0.00000E+00
 -1       290 1.47402E+02 3.09250E+01 0.00000E+00
 -1       291 1.47402E+02 3.38250E+01 0.00000E+00
 -1       292 1.47402E+02 3.67750E+01 0.00000E+00
 -1       293 1.47402E+02 3.97250E+01 0.00000E+00
 -1       294 1.47402E+02 4.26750E+01 0.00000E+00
 -1       295 1.47707E+02 4.51418E+01 0.00000E+00
 -1       296 8.20951E+01 3.67571E+01 0.00000E+00
 -1       297 8.18314E+01 3.50857E+01 0.00000E+00
 -1       298 8.11358E+01 3.34962E+01 0.00000E+00
 -1       299 8.00942E+01 3.20591E+01 0.00000E+00
 -1       300 7.87811E+01 3.08771E+01 0.00000E+00
 -1       301 7.72240E+01 3.00026E+01 0.00000E+00
 -1       302 7.54000E+01 2.92110E+01 0.00000E+00
 -1       303 7.34999E+01 2.93349E+01 0.00000E+00
 -1       304 7.17614E+01 2.95385E+01 0.00000E+00
 -1       305 7.01412E+01 3.02602E+01 0.00000E+00
 -1       306 6.87694E+01 3.12650E+01 0.00000E+00
 -1       307 6.75970E+01 3.24476E+01 0.00000E+00
 -1       308 6.65209E+01 3.38139E+01 0.00000E+00
 -1       309 6.57157E+01 3.55035E+01 0.00000E+00
 -1       310 6.57884E+01 3.73313E+01 0.00000E+00
 -1       311 6.59105E+01 3.90083E+01 0.00000E+00
 -1       312 6.63160E+01 4.06987E+01 0.00000E+00
 -1       313 6.71401E+01 4.22394E+01 0.00000E+00
 -1       314 6.82899E+01 4.34725E+01 0.00000E+00
 -1       315 6.95453E+01 4.46575E+01 0.00000E+00
 -1       316 7.11466E+01 4.52601E+01 0.00000E+00
 -1       317 7.27064E+01 4.58316E+01 0.00000E+00
 -1       318 7.43523E+01 4.57511E+01 0.00000E+00
 -1       319 7.59966E+01 4.54973E+01 0.00000E+00
 -1       320 7.76300E+01 4.49808E+01 0.00000E+00
 -1       321 7.89783E+01 4.40409E+01 0.00000E+00
 -1       322 8.01472E+01 4.29282E+01 0.00000E+00
 -1       323 8.10809E+01 4.16054E+01 0.00000E+00
 -1       324 8.17332E+01 4.01193E+01 0.00000E+00
 -1       325 8.22519E+01 3.84748E+01 0.00000E+00
 -1       326 7.13250E+01 4.81173E+01 0.00000E+00
 -1       327 5.19600E+00 4.11500E+01 0.00000E+00
 -1       328 5.19600E+00 4.41000E+01 0.00000E+00
 -1       329 5.19600E+00 3.52750E+01 0.00000E+00
 -1       330 5.19600E+00 3.23250E+01 0.00000E+00
 -1       331 5.19600E+00 2.93750E+01 0.00000E+00
 -1       332 5.19600E+00 2.64250E+01 0.00000E+00
 -1       333 5.19600E+00 2.34750E+01 0.00000E+00
 -1       334 5.19600E+00 2.05250E+01 0.00000E+00
 -1       335 5.19600E+00 1.76250E+01 0.00000E+00
 -1       336 5.19600E+00 1.46750E+01 0.00000E+00
 -1       337 5.19600E+00 1.17250E+01 0.00000E+00
 -1       338 5.19600E+00 8.77500E+00 0.00000E+00
 -1       339 5.19600E+00 5.82500E+00 0.00000E+00
 -1       340 5.53500E+00 4.00625E+00 0.00000E+00
 -1       341 8.53500E+00 4.00625E+00 0.00000E+00
 -1       342 8.32436E+01 3.57194E+01 0.00000E+00
 -1       343 9.00000E+00 4.48040E+01 0.00000E+00
 -1       344 1.20000E+01 4.48040E+01 0.00000E+00
 -1       345 1.50000E+01 4.48040E+01 0.00000E+00
 -1       346 1.80000E+01 4.48040E+01 0.00000E+00
 -1       347 2.08500E+01 4.48040E+01 0.00000E+00
 -1       348 2.38500E+01 4.48040E+01 0.00000E+00
 -1       349 2.68500E+01 4.48040E+01 0.00000E+00
 -1       350 2.98500E+01 4.48040E+01 0.00000E+00
 -1       351 3.28500E+01 4.48040E+01 0.00000E+00
 -1       352 3.58500E+01 4.48040E+01 0.00000E+00
 -1       353 3.88500E+01 4.48040E+01 0.00000E+00
 -1       354 4.17000E+01 4.48040E+01 0.00000E+00
 -1       355 4.47000E+01 4.48040E+01 0.00000E+00
 -1       356 4.77000E+01 4.48040E+01 0.00000E+00
 -1       357 5.07000E+01 4.48040E+01 0.00000E+00
 -1       358 5.37000E+01 4.48040E+01 0.00000E+00
 -1       359 5.67000E+01 4.48040E+01 0.00000E+00
 -1       360 5.97000E+01 4.48040E+01 0.00000E+00
 -1       361 6.24000E+01 4.48040E+01 0.00000E+00
 -1       362 6.49500E+01 4.48040E+01 0.00000E+00
 -1       363 8.18680E+01 3.18694E+01 0.00000E+00
 -1       364 7.91250E+01 4.62346E+01 0.00000E+00
 -1       365 8.19750E+01 4.60671E+01 0.00000E+00
 -1       366 8.48250E+01 4.60671E+01 0.00000E+00
 -1       367 8.78250E+01 4.55193E+01 0.00000E+00
 -1       368 9.08250E+01 4.55193E+01 0.00000E+00
 -1       369 9.38250E+01 4.55193E+01 0.00000E+00
 -1       370 9.68250E+01 4.55193E+01 0.00000E+00
 -1       371 9.98250E+01 4.55193E+01 0.00000E+00
 -1       372 1.02825E+02 4.55193E+01 0.00000E+00
 -1       373 1.05675E+02 4.55193E+01 0.00000E+00
 -1       374 1.08675E+02 4.55193E+01 0.00000E+00
 -1       375 1.11675E+02 4.55193E+01 0.00000E+00
 -1       376 1.14675E+02 4.55193E+01 0.00000E+00
 -1       377 1.17675E+02 4.55193E+01 0.00000E+00
 -1       378 1.20675E+02 4.55193E+01 0.00000E+00
 -1       379 1.23675E+02 4.55193E+01 0.00000E+00
 -1       380 1.26525E+02 4.55193E+01 0.00000E+00
 -1       381 1.29525E+02 4.55193E+01 0.00000E+00
 -1       382 1.32525E+02 4.55193E+01 0.00000E+00
 -1       383 1.35525E+02 4.55193E+01 0.00000E+00
 -1       384 1.38525E+02 4.55193E+01 0.00000E+00
 -1       385 1.41525E+02 4.55193E+01 0.00000E+00
 -1       386 1.44525E+02 4.55193E+01 0.00000E+00
 -1       387 1.33740E+01 4.78550E+00 0.00000E+00
 -1       388 1.63740E+01 4.78550E+00 0.00000E+00
 -1       389 1.93740E+01 4.78550E+00 0.00000E+00
 -1       390 2.23740E+01 4.78550E+00 0.00000E+00
 -1       391 2.53740E+01 4.78550E+00 0.00000E+00
 -1       392 2.83740E+01 4.78550E+00 0.00000E+00
 -1       393 3.13740E+01 4.78550E+00 0.00000E+00
 -1       394 3.43740E+01 4.78550E+00 0.00000E+00
 -1       395 3.73740E+01 4.78550E+00 0.00000E+00
 -1       396 4.03740E+01 4.78550E+00 0.00000E+00
 -1       397 4.33740E+01 4.78550E+00 0.00000E+00
 -1       398 4.63740E+01 4.78550E+00 0.00000E+00
 -1       399 4.93740E+01 4.78550E+00 0.00000E+00
 -1       400 5.23740E+01 4.78550E+00 0.00000E+00
 -1       401 5.53740E+01 4.78550E+00 0.00000E+00
 -1       402 5.83740E+01 4.78550E+00 0.00000E+00
 -1       403 6.13740E+01 4.78550E+00 0.00000E+00
 -1       404 6.43740E+01 4.78550E+00 0.00000E+00
 -1       405 6.73740E+01 4.78550E+00 0.00000E+00
 -1       406 7.03740E+01 4.78550E+00 0.00000E+00
 -1       407 7.33740E+01 4.78550E+00 0.00000E+00
 -1       408 7.63740E+01 4.78550E+00 0.00000E+00
 -1       409 7.93740E+01 4.78550E+00 0.00000E+00
 -1       410 8.23740E+01 4.78550E+00 0.00000E+00
 -1       411 8.53740E+01 4.78550E+00 0.00000E+00
 -1       412 8.83740E+01 4.78550E+00 0.00000E+00
 -1       413 9.13740E+01 4.78550E+00 0.00000E+00
 -1       414 9.43740E+01 4.78550E+00 0.00000E+00
 -1       415 9.73740E+01 4.78550E+00 0.00000E+00
 -1       416 1.00374E+02 4.78550E+00 0.00000E+00
 -1       417 1.03374E+02 4.78550E+00 0.00000E+00
 -1       418 1.06374E+02 4.78550E+00 0.00000E+00
 -1       419 1.09374E+02 4.78550E+00 0.00000E+00
 -1       420 1.12374E+02 4.78550E+00 0.00000E+00
 -1       421 1.15374E+02 4.78550E+00 0.00000E+00
 -1       422 1.18374E+02 4.78550E+00 0.00000E+00
 -1       423 1.21374E+02 4.78550E+00 0.00000E+00
 -1       424 1.24374E+02 4.78550E+00 0.00000E+00
 -1       425 1.27374E+02 4.78550E+00 0.00000E+00
 -1       426 1.30374E+02 4.78550E+00 0.00000E+00
 -1       427 1.33374E+02 4.78550E+00 0.00000E+00
 -1       428 1.36374E+02 4.78550E+00 0.00000E+00
 -1       429 1.39374E+02 4.78550E+00 0.00000E+00
 -1       430 1.42374E+02 4.78550E+00 0.00000E+00
 -1       431 1.44888E+02 4.60525E+00 0.00000E+00
 -1       432 1.44804E+02 1.18000E+01 0.00000E+00
 -1       433 1.44804E+02 8.85000E+00 0.00000E+00
 -1       434 1.44804E+02 1.47000E+01 0.00000E+00
 -1       435 1.44804E+02 1.76500E+01 0.00000E+00
 -1       436 1.44804E+02 2.06000E+01 0.00000E+00
 -1       437 1.44804E+02 2.35500E+01 0.00000E+00
 -1       438 1.44804E+02 2.65000E+01 0.00000E+00
 -1       439 1.44804E+02 2.94500E+01 0.00000E+00
 -1       440 1.44804E+02 3.23500E+01 0.00000E+00
 -1       441 1.44804E+02 3.53000E+01 0.00000E+00
 -1       442 1.44804E+02 3.82500E+01 0.00000E+00
 -1       443 1.44804E+02 4.12000E+01 0.00000E+00
 -1       444 1.09545E+01 4.39587E+00 0.00000E+00
 -1       445 8.30548E+01 3.36033E+01 0.00000E+00
 -1       446 8.03048E+01 3.05047E+01 0.00000E+00
 -1       447 8.37146E+01 3.74753E+01 0.00000E+00
 -1       448 5.19600E+00 3.82125E+01 0.00000E+00
 -1       449 7.87193E+01 2.91636E+01 0.00000E+00
 -1       450 7.69949E+01 2.80335E+01 0.00000E+00
 -1       451 7.43656E+01 2.79795E+01 0.00000E+00
 -1       452 7.24604E+01 2.79828E+01 0.00000E+00
 -1       453 7.03216E+01 2.84857E+01 0.00000E+00
 -1       454 6.85903E+01 2.95817E+01 0.00000E+00
 -1       455 6.71437E+01 3.08258E+01 0.00000E+00
 -1       456 6.60675E+01 3.21921E+01 0.00000E+00
 -1       457 6.46456E+01 3.39568E+01 0.00000E+00
 -1       458 6.40383E+01 3.64856E+01 0.00000E+00
 -1       459 6.41604E+01 3.81626E+01 0.00000E+00
 -1       460 6.47713E+01 4.01754E+01 0.00000E+00
 -1       461 6.52157E+01 4.22780E+01 0.00000E+00
 -1       462 6.65219E+01 4.39684E+01 0.00000E+00
 -1       463 6.77773E+01 4.51535E+01 0.00000E+00
 -1       464 6.98599E+01 4.62504E+01 0.00000E+00
 -1       465 8.04564E+01 4.44234E+01 0.00000E+00
 -1       466 8.17415E+01 4.30626E+01 0.00000E+00
 -1       467 8.25939E+01 4.13833E+01 0.00000E+00
 -1       468 8.34684E+01 3.97626E+01 0.00000E+00
 -1       469 7.68858E+01 4.68073E+01 0.00000E+00
 -1       470 1.44665E+02 4.33597E+01 0.00000E+00
 -1       471 7.59605E+01 2.68020E+01 0.00000E+00
 -1       472 7.79400E+00 3.08500E+01 0.00000E+00
 -1       473 7.79400E+00 3.38000E+01 0.00000E+00
 -1       474 7.79400E+00 2.49500E+01 0.00000E+00
 -1       475 7.79400E+00 2.20000E+01 0.00000E+00
 -1       476 7.79400E+00 1.91000E+01 0.00000E+00
 -1       477 7.79400E+00 1.61500E+01 0.00000E+00
 -1       478 7.79400E+00 1.32000E+01 0.00000E+00
 -1       479 7.79400E+00 1.02500E+01 0.00000E+00
 -1       480 7.79400E+00 7.30000E+00 0.00000E+00
 -1       481 8.16450E+00 5.65312E+00 0.00000E+00
 -1       482 8.51357E+01 3.61530E+01 0.00000E+00
 -1       483 1.05000E+01 4.22060E+01 0.00000E+00
 -1       484 8.49469E+01 3.40369E+01 0.00000E+00
 -1       485 1.35000E+01 4.22060E+01 0.00000E+00
 -1       486 1.65000E+01 4.22060E+01 0.00000E+00
 -1       487 1.93500E+01 4.22060E+01 0.00000E+00
 -1       488 2.23500E+01 4.22060E+01 0.00000E+00
 -1       489 2.53500E+01 4.22060E+01 0.00000E+00
 -1       490 2.83500E+01 4.22060E+01 0.00000E+00
 -1       491 3.13500E+01 4.22060E+01 0.00000E+00
 -1       492 3.43500E+01 4.22060E+01 0.00000E+00
 -1       493 3.73500E+01 4.22060E+01 0.00000E+00
 -1       494 4.02000E+01 4.22060E+01 0.00000E+00
 -1       495 4.32000E+01 4.22060E+01 0.00000E+00
 -1       496 4.62000E+01 4.22060E+01 0.00000E+00
 -1       497 4.92000E+01 4.22060E+01 0.00000E+00
 -1       498 5.22000E+01 4.22060E+01 0.00000E+00
 -1       499 5.52000E+01 4.22060E+01 0.00000E+00
 -1       500 5.82000E+01 4.22060E+01 0.00000E+00
 -1       501 6.09000E+01 4.22060E+01 0.00000E+00
 -1       502 7.87513E+01 2.72341E+01 0.00000E+00
 -1       503 8.05115E+01 2.86526E+01 0.00000E+00
 -1       504 8.21593E+01 2.99582E+01 0.00000E+00
 -1       505 8.58584E+01 4.32374E+01 0.00000E+00
 -1       506 9.23250E+01 4.29213E+01 0.00000E+00
 -1       507 9.53250E+01 4.29213E+01 0.00000E+00
 -1       508 9.83250E+01 4.29213E+01 0.00000E+00
 -1       509 1.01325E+02 4.29213E+01 0.00000E+00
 -1       510 1.04175E+02 4.29213E+01 0.00000E+00
 -1       511 1.07175E+02 4.29213E+01 0.00000E+00
 -1       512 1.10175E+02 4.29213E+01 0.00000E+00
 -1       513 1.13175E+02 4.29213E+01 0.00000E+00
 -1       514 1.16175E+02 4.29213E+01 0.00000E+00
 -1       515 1.19175E+02 4.29213E+01 0.00000E+00
 -1       516 1.22175E+02 4.29213E+01 0.00000E+00
 -1       517 1.25025E+02 4.29213E+01 0.00000E+00
 -1       518 1.28025E+02 4.29213E+01 0.00000E+00
 -1       519 1.31025E+02 4.29213E+01 0.00000E+00
 -1       520 1.34025E+02 4.29213E+01 0.00000E+00
 -1       521 1.37025E+02 4.29213E+01 0.00000E+00
 -1       522 1.40025E+02 4.29213E+01 0.00000E+00
 -1       523 1.42345E+02 4.31405E+01 0.00000E+00
 -1       524 2.08740E+01 7.38350E+00 0.00000E+00
 -1       525 1.78740E+01 7.38350E+00 0.00000E+00
 -1       526 1.48740E+01 7.38350E+00 0.00000E+00
 -1       527 2.38740E+01 7.38350E+00 0.00000E+00
 -1       528 2.68740E+01 7.38350E+00 0.00000E+00
 -1       529 2.98740E+01 7.38350E+00 0.00000E+00
 -1       530 3.28740E+01 7.38350E+00 0.00000E+00
 -1       531 3.58740E+01 7.38350E+00 0.00000E+00
 -1       532 3.88740E+01 7.38350E+00 0.00000E+00
 -1       533 4.18740E+01 7.38350E+00 0.00000E+00
 -1       534 4.48740E+01 7.38350E+00 0.00000E+00
 -1       535 4.78740E+01 7.38350E+00 0.00000E+00
 -1       536 5.08740E+01 7.38350E+00 0.00000E+00
 -1       537 5.38740E+01 7.38350E+00 0.00000E+00
 -1       538 5.68740E+01 7.38350E+00 0.00000E+00
 -1       539 5.98740E+01 7.38350E+00 0.00000E+00
 -1       540 6.28740E+01 7.38350E+00 0.00000E+00
 -1       541 6.58740E+01 7.38350E+00 0.00000E+00
 -1       542 6.88740E+01 7.38350E+00 0.00000E+00
 -1       543 7.18740E+01 7.38350E+00 0.00000E+00
 -1       544 7.48740E+01 7.38350E+00 0.00000E+00
 -1       545 7.78740E+01 7.38350E+00 0.00000E+00
 -1       546 8.08740E+01 7.38350E+00 0.00000E+00
 -1       547 8.38740E+01 7.38350E+00 0.00000E+00
 -1       548 8.68740E+01 7.38350E+00 0.00000E+00
 -1       549 8.98740E+01 7.38350E+00 0.00000E+00
 -1       550 9.28740E+01 7.38350E+00 0.00000E+00
 -1       551 9.58740E+01 7.38350E+00 0.00000E+00
 -1       552 9.88740E+01 7.38350E+00 0.00000E+00
 -1       553 1.01874E+02 7.38350E+00 0.00000E+00
 -1       554 1.04874E+02 7.38350E+00 0.00000E+00
 -1       555 1.07874E+02 7.38350E+00 0.00000E+00
 -1       556 1.10874E+02 7.38350E+00 0.00000E+00
 -1       557 1.13874E+02 7.38350E+00 0.00000E+00
 -1       558 1.16874E+02 7.38350E+00 0.00000E+00
 -1       559 1.19874E+02 7.38350E+00 0.00000E+00
 -1       560 1.22874E+02 7.38350E+00 0.00000E+00
 -1       561 1.25874E+02 7.38350E+00 0.00000E+00
 -1       562 1.28874E+02 7.38350E+00 0.00000E+00
 -1       563 1.31874E+02 7.38350E+00 0.00000E+00
 -1       564 1.34874E+02 7.38350E+00 0.00000E+00
 -1       565 1.37874E+02 7.38350E+00 0.00000E+00
 -1       566 1.40874E+02 7.38350E+00 0.00000E+00
 -1       567 1.42206E+02 1.61750E+01 0.00000E+00
 -1       568 1.42206E+02 1.32750E+01 0.00000E+00
 -1       569 1.42206E+02 1.03250E+01 0.00000E+00
 -1       570 8.41533E+01 3.15783E+01 0.00000E+00
 -1       571 1.42206E+02 1.91250E+01 0.00000E+00
 -1       572 1.42206E+02 2.20750E+01 0.00000E+00
 -1       573 1.42206E+02 2.50250E+01 0.00000E+00
 -1       574 1.42206E+02 2.79750E+01 0.00000E+00
 -1       575 1.42206E+02 3.08750E+01 0.00000E+00
 -1       576 1.42206E+02 3.38250E+01 0.00000E+00
 -1       577 1.42206E+02 3.67750E+01 0.00000E+00
 -1       578 1.42206E+02 3.97250E+01 0.00000E+00
 -1       579 8.43931E+01 4.13078E+01 0.00000E+00
 -1       580 8.56300E+01 3.88384E+01 0.00000E+00
 -1       581 6.42168E+01 3.21561E+01 0.00000E+00
 -1       582 6.68034E+01 2.89669E+01 0.00000E+00
 -1       583 8.93250E+01 4.29213E+01 0.00000E+00