    1C
    1UUSER                                                              
    1UDATE              27.october.2022                                 
    1UTIME              00:31:54                                        
    1UHOST                                                              
    1UPGM               CalculiX                                        
    1UVERSION           Version 2.17                             
    1UCOMPILETIME       Thu Jul 23 21:43:50 CEST 2020                    
    1UDIR                                                               
    1UDBN                                                               
    1UMAT    1SOLIDMATERIAL                                             
    2C                          4211                                     1
 -1         1 1.39063E+02 2.74759E+01 0.00000E+00
 -1         2 1.44493E+02 2.06540E+01 0.00000E+00
 -1         3 1.50000E+02 0.00000E+00 0.00000E+00
 -1         4 1.50000E+02 5.00000E+01 0.00000E+00
 -1         5 0.00000E+00 0.00000E+00 0.00000E+00
 -1         6 0.00000E+00 5.00000E+01 0.00000E+00
 -1         7 0.00000E+00 4.70500E+01 0.00000E+00
 -1         8 0.00000E+00 4.41000E+01 0.00000E+00
 -1         9 0.00000E+00 4.11500E+01 0.00000E+00
 -1        10 0.00000E+00 3.82000E+01 0.00000E+00
 -1        11 0.00000E+00 3.52500E+01 0.00000E+00
 -1        12 0.00000E+00 3.23500E+01 0.00000E+00
 -1        13 0.00000E+00 2.94000E+01 0.00000E+00
 -1        14 0.00000E+00 2.64500E+01 0.00000E+00
 -1        15 0.00000E+00 2.35000E+01 0.00000E+00
 -1        16 0.00000E+00 2.05500E+01 0.00000E+00
 -1        17 0.00000E+00 1.76000E+01 0.00000E+00
 -1        18 0.00000E+00 1.47000E+01 0.00000E+00
 -1        19 0.00000E+00 1.17500E+01 0.00000E+00
 -1        20 0.00000E+00 8.80000E+00 0.00000E+00
 -1        21 0.00000E+00 5.85000E+00 0.00000E+00
 -1        22 0.00000E+00 2.90000E+00 0.00000E+00
 -1        23 3.15000E+00 5.00000E+01 0.00000E+00
 -1        24 6.15000E+00 5.00000E+01 0.00000E+00
 -1        25 9.15000E+00 5.00000E+01 0.00000E+00
 -1        26 1.21500E+01 5.00000E+01 0.00000E+00
 -1        27 1.51500E+01 5.00000E+01 0.00000E+00
 -1        28 1.81500E+01 5.00000E+01 0.00000E+00
 -1        29 2.11500E+01 5.00000E+01 0.00000E+00
 -1        30 2.41500E+01 5.00000E+01 0.00000E+00
 -1        31 2.71500E+01 5.00000E+01 0.00000E+00
 -1        32 3.01500E+01 5.00000E+01 0.00000E+00
 -1        33 3.31500E+01 5.00000E+01 0.00000E+00
 -1        34 3.61500E+01 5.00000E+01 0.00000E+00
 -1        35 3.91500E+01 5.00000E+01 0.00000E+00
 -1        36 4.21500E+01 5.00000E+01 0.00000E+00
 -1        37 4.51500E+01 5.00000E+01 0.00000E+00
 -1        38 4.81500E+01 5.00000E+01 0.00000E+00
 -1        39 5.11500E+01 5.00000E+01 0.00000E+00
 -1        40 5.41500E+01 5.00000E+01 0.00000E+00
 -1        41 5.71500E+01 5.00000E+01 0.00000E+00
 -1        42 6.01500E+01 5.00000E+01 0.00000E+00
 -1        43 6.31500E+01 5.00000E+01 0.00000E+00
 -1        44 6.61500E+01 5.00000E+01 0.00000E+00
 -1        45 6.91500E+01 5.00000E+01 0.00000E+00
 -1        46 7.21500E+01 5.00000E+01 0.00000E+00
 -1        47 7.51500E+01 5.00000E+01 0.00000E+00
 -1        48 7.81500E+01 5.00000E+01 0.00000E+00
 -1        49 8.11500E+01 5.00000E+01 0.00000E+00
 -1        50 8.41500E+01 5.00000E+01 0.00000E+00
 -1        51 8.71500E+01 5.00000E+01 0.00000E+00
 -1        52 9.01500E+01 5.00000E+01 0.00000E+00
 -1        53 9.31500E+01 5.00000E+01 0.00000E+00
 -1        54 9.61500E+01 5.00000E+01 0.00000E+00
 -1        55 9.91500E+01 5.00000E+01 0.00000E+00
 -1        56 1.02150E+02 5.00000E+01 0.00000E+00
 -1        57 1.05150E+02 5.00000E+01 0.00000E+00
 -1        58 1.08150E+02 5.00000E+01 0.00000E+00
 -1        59 1.11150E+02 5.00000E+01 0.00000E+00
 -1        60 1.14150E+02 5.00000E+01 0.00000E+00
 -1        61 1.17150E+02 5.00000E+01 0.00000E+00
 -1        62 1.20150E+02 5.00000E+01 0.00000E+00
 -1        63 1.23150E+02 5.00000E+01 0.00000E+00
 -1        64 1.26150E+02 5.00000E+01 0.00000E+00
 -1        65 1.29150E+02 5.00000E+01 0.00000E+00
 -1        66 1.32150E+02 5.00000E+01 0.00000E+00
 -1        67 1.35150E+02 5.00000E+01 0.00000E+00
 -1        68 1.38150E+02 5.00000E+01 0.00000E+00
 -1        69 1.41150E+02 5.00000E+01 0.00000E+00
 -1        70 1.44150E+02 5.00000E+01 0.00000E+00
 -1        71 1.47150E+02 5.00000E+01 0.00000E+00
 -1        72 3.15000E+00 0.00000E+00 0.00000E+00
 -1        73 6.15000E+00 0.00000E+00 0.00000E+00
 -1        74 9.15000E+00 0.00000E+00 0.00000E+00
 -1        75 1.21500E+01 0.00000E+00 0.00000E+00
 -1        76 1.51500E+01 0.00000E+00 0.00000E+00
 -1        77 1.81500E+01 0.00000E+00 0.00000E+00
 -1        78 2.11500E+01 0.00000E+00 0.00000E+00
 -1        79 2.41500E+01 0.00000E+00 0.00000E+00
 -1        80 2.71500E+01 0.00000E+00 0.00000E+00
 -1        81 3.01500E+01 0.00000E+00 0.00000E+00
 -1        82 3.31500E+01 0.00000E+00 0.00000E+00
 -1        83 3.61500E+01 0.00000E+00 0.00000E+00
 -1        84 3.91500E+01 0.00000E+00 0.00000E+00
 -1        85 4.21500E+01 0.00000E+00 0.00000E+00
 -1        86 4.51500E+01 0.00000E+00 0.00000E+00
 -1        87 4.81500E+01 0.00000E+00 0.00000E+00
 -1        88 5.11500E+01 0.00000E+00 0.00000E+00
 -1        89 5.41500E+01 0.00000E+00 0.00000E+00
 -1        90 5.71500E+01 0.00000E+00 0.00000E+00
 -1        91 6.01500E+01 0.00000E+00 0.00000E+00
 -1        92 6.31500E+01 0.00000E+00 0.00000E+00
 -1        93 6.61500E+01 0.00000E+00 0.00000E+00
 -1        94 6.91500E+01 0.00000E+00 0.00000E+00
 -1        95 7.21500E+01 0.00000E+00 0.00000E+00
 -1        96 7.51500E+01 0.00000E+00 0.00000E+00
 -1        97 7.81500E+01 0.00000E+00 0.00000E+00
 -1        98 8.11500E+01 0.00000E+00 0.00000E+00
 -1        99 8.41500E+01 0.00000E+00 0.00000E+00
 -1       100 8.71500E+01 0.00000E+00 0.00000E+00
 -1       101 9.01500E+01 0.00000E+00 0.00000E+00
 -1       102 9.31500E+01 0.00000E+00 0.00000E+00
 -1       103 9.61500E+01 0.00000E+00 0.00000E+00
 -1       104 9.91500E+01 0.00000E+00 0.00000E+00
 -1       105 1.02150E+02 0.00000E+00 0.00000E+00
 -1       106 1.05150E+02 0.00000E+00 0.00000E+00
 -1       107 1.08150E+02 0.00000E+00 0.00000E+00
 -1       108 1.11150E+02 0.00000E+00 0.00000E+00
 -1       109 1.14150E+02 0.00000E+00 0.00000E+00
 -1       110 1.17150E+02 0.00000E+00 0.00000E+00
 -1       111 1.20150E+02 0.00000E+00 0.00000E+00
 -1       112 1.23150E+02 0.00000E+00 0.00000E+00
 -1       113 1.26150E+02 0.00000E+00 0.00000E+00
 -1       114 1.29150E+02 0.00000E+00 0.00000E+00
 -1       115 1.32150E+02 0.00000E+00 0.00000E+00
 -1       116 1.35150E+02 0.00000E+00 0.00000E+00
 -1       117 1.38150E+02 0.00000E+00 0.00000E+00
 -1       118 1.41150E+02 0.00000E+00 0.00000E+00
 -1       119 1.44150E+02 0.00000E+00 0.00000E+00
 -1       120 1.47150E+02 0.00000E+00 0.00000E+00
 -1       121 1.50000E+02 2.95000E+00 0.00000E+00
 -1       122 1.50000E+02 5.90000E+00 0.00000E+00
 -1       123 1.50000E+02 8.85000E+00 0.00000E+00
 -1       124 1.50000E+02 1.17500E+01 0.00000E+00
 -1       125 1.50000E+02 1.44000E+01 0.00000E+00
 -1       126 1.50000E+02 1.67000E+01 0.00000E+00
 -1       127 1.50000E+02 1.90000E+01 0.00000E+00
 -1       128 1.50000E+02 2.10500E+01 0.00000E+00
 -1       129 1.50000E+02 2.30500E+01 0.00000E+00
 -1       130 1.50000E+02 2.53000E+01 0.00000E+00
 -1       131 1.50000E+02 2.75000E+01 0.00000E+00
 -1       132 1.50000E+02 2.98500E+01 0.00000E+00
 -1       133 1.50000E+02 3.24000E+01 0.00000E+00
 -1       134 1.50000E+02 3.53500E+01 0.00000E+00
 -1       135 1.50000E+02 3.83000E+01 0.00000E+00
 -1       136 1.50000E+02 4.12000E+01 0.00000E+00
 -1       137 1.50000E+02 4.41500E+01 0.00000E+00
 -1       138 1.50000E+02 4.71000E+01 0.00000E+00
 -1       139 1.44311E+02 1.90658E+01 0.00000E+00
 -1       140 1.43848E+02 1.77182E+01 0.00000E+00
 -1       141 1.43025E+02 1.63642E+01 0.00000E+00
 -1       142 1.42074E+02 1.53610E+01 0.00000E+00
 -1       143 1.40858E+02 1.45158E+01 0.00000E+00
 -1       144 1.39500E+02 1.39478E+01 0.00000E+00
 -1       145 1.38016E+02 1.36735E+01 0.00000E+00
 -1       146 1.36444E+02 1.37332E+01 0.00000E+00
 -1       147 1.35079E+02 1.40838E+01 0.00000E+00
 -1       148 1.33688E+02 1.47787E+01 0.00000E+00
 -1       149 1.32587E+02 1.56616E+01 0.00000E+00
 -1       150 1.31627E+02 1.68349E+01 0.00000E+00
 -1       151 1.30939E+02 1.81958E+01 0.00000E+00
 -1       152 1.30562E+02 1.96769E+01 0.00000E+00
 -1       153 1.30507E+02 2.10934E+01 0.00000E+00
 -1       154 1.30758E+02 2.25585E+01 0.00000E+00
 -1       155 1.31332E+02 2.39765E+01 0.00000E+00
 -1       156 1.32255E+02 2.52976E+01 0.00000E+00
 -1       157 1.33324E+02 2.62766E+01 0.00000E+00
 -1       158 1.34672E+02 2.70603E+01 0.00000E+00
 -1       159 1.36111E+02 2.75161E+01 0.00000E+00
 -1       160 1.37591E+02 2.76533E+01 0.00000E+00
 -1       161 1.40531E+02 2.69606E+01 0.00000E+00
 -1       162 1.41817E+02 2.61595E+01 0.00000E+00
 -1       163 1.42951E+02 2.50373E+01 0.00000E+00
 -1       164 1.43780E+02 2.37325E+01 0.00000E+00
 -1       165 1.44330E+02 2.21568E+01 0.00000E+00
 -1       166 2.59800E+00 4.55750E+01 0.00000E+00
 -1       167 2.59800E+00 4.26250E+01 0.00000E+00
 -1       168 2.59800E+00 3.96750E+01 0.00000E+00
 -1       169 2.59800E+00 3.67250E+01 0.00000E+00
 -1       170 2.59800E+00 3.38250E+01 0.00000E+00
 -1       171 2.59800E+00 3.08750E+01 0.00000E+00
 -1       172 2.59800E+00 2.79250E+01 0.00000E+00
 -1       173 2.59800E+00 2.49750E+01 0.00000E+00
 -1       174 2.59800E+00 2.20250E+01 0.00000E+00
 -1       175 2.59800E+00 1.90750E+01 0.00000E+00
 -1       176 2.59800E+00 1.61750E+01 0.00000E+00
 -1       177 2.59800E+00 1.32250E+01 0.00000E+00
 -1       178 2.59800E+00 1.02750E+01 0.00000E+00
 -1       179 2.59800E+00 7.32500E+00 0.00000E+00
 -1       180 2.59800E+00 4.37500E+00 0.00000E+00
 -1       181 2.87400E+00 2.18750E+00 0.00000E+00
 -1       182 4.65000E+00 4.74020E+01 0.00000E+00
 -1       183 7.65000E+00 4.74020E+01 0.00000E+00
 -1       184 1.06500E+01 4.74020E+01 0.00000E+00
 -1       185 1.36500E+01 4.74020E+01 0.00000E+00
 -1       186 1.66500E+01 4.74020E+01 0.00000E+00
 -1       187 1.96500E+01 4.74020E+01 0.00000E+00
 -1       188 2.26500E+01 4.74020E+01 0.00000E+00
 -1       189 2.56500E+01 4.74020E+01 0.00000E+00
 -1       190 2.86500E+01 4.74020E+01 0.00000E+00
 -1       191 3.16500E+01 4.74020E+01 0.00000E+00
 -1       192 3.46500E+01 4.74020E+01 0.00000E+00
 -1       193 3.76500E+01 4.74020E+01 0.00000E+00
 -1       194 4.06500E+01 4.74020E+01 0.00000E+00
 -1       195 4.36500E+01 4.74020E+01 0.00000E+00
 -1       196 4.66500E+01 4.74020E+01 0.00000E+00
 -1       197 4.96500E+01 4.74020E+01 0.00000E+00
 -1       198 5.26500E+01 4.74020E+01 0.00000E+00
 -1       199 5.56500E+01 4.74020E+01 0.00000E+00
 -1       200 5.86500E+01 4.74020E+01 0.00000E+00
 -1       201 6.16500E+01 4.74020E+01 0.00000E+00
 -1       202 6.46500E+01 4.74020E+01 0.00000E+00
 -1       203 6.76500E+01 4.74020E+01 0.00000E+00
 -1       204 7.06500E+01 4.74020E+01 0.00000E+00
 -1       205 7.36500E+01 4.74020E+01 0.00000E+00
 -1       206 7.66500E+01 4.74020E+01 0.00000E+00
 -1       207 7.96500E+01 4.74020E+01 0.00000E+00
 -1       208 8.26500E+01 4.74020E+01 0.00000E+00
 -1       209 8.56500E+01 4.74020E+01 0.00000E+00
 -1       210 8.86500E+01 4.74020E+01 0.00000E+00
 -1       211 9.16500E+01 4.74020E+01 0.00000E+00
 -1       212 9.46500E+01 4.74020E+01 0.00000E+00
 -1       213 9.76500E+01 4.74020E+01 0.00000E+00
 -1       214 1.00650E+02 4.74020E+01 0.00000E+00
 -1       215 1.03650E+02 4.74020E+01 0.00000E+00
 -1       216 1.06650E+02 4.74020E+01 0.00000E+00
 -1       217 1.09650E+02 4.74020E+01 0.00000E+00
 -1       218 1.12650E+02 4.74020E+01 0.00000E+00
 -1       219 1.15650E+02 4.74020E+01 0.00000E+00
 -1       220 1.18650E+02 4.74020E+01 0.00000E+00
 -1       221 1.21650E+02 4.74020E+01 0.00000E+00
 -1       222 1.24650E+02 4.74020E+01 0.00000E+00
 -1       223 1.27650E+02 4.74020E+01 0.00000E+00
 -1       224 1.30650E+02 4.74020E+01 0.00000E+00
 -1       225 1.33650E+02 4.74020E+01 0.00000E+00
 -1       226 1.36650E+02 4.74020E+01 0.00000E+00
 -1       227 1.39650E+02 4.74020E+01 0.00000E+00
 -1       228 1.42650E+02 4.74020E+01 0.00000E+00
 -1       229 1.45650E+02 4.74020E+01 0.00000E+00
 -1       230 5.87400E+00 2.18750E+00 0.00000E+00
 -1       231 8.87400E+00 2.18750E+00 0.00000E+00
 -1       232 1.18740E+01 2.18750E+00 0.00000E+00
 -1       233 1.48740E+01 2.18750E+00 0.00000E+00
 -1       234 1.78740E+01 2.18750E+00 0.00000E+00
 -1       235 2.08740E+01 2.18750E+00 0.00000E+00
 -1       236 2.38740E+01 2.18750E+00 0.00000E+00
 -1       237 2.68740E+01 2.18750E+00 0.00000E+00
 -1       238 2.98740E+01 2.18750E+00 0.00000E+00
 -1       239 3.28740E+01 2.18750E+00 0.00000E+00
 -1       240 3.58740E+01 2.18750E+00 0.00000E+00
 -1       241 3.88740E+01 2.18750E+00 0.00000E+00
 -1       242 4.18740E+01 2.18750E+00 0.00000E+00
 -1       243 4.48740E+01 2.18750E+00 0.00000E+00
 -1       244 4.78740E+01 2.18750E+00 0.00000E+00
 -1       245 5.08740E+01 2.18750E+00 0.00000E+00
 -1       246 5.38740E+01 2.18750E+00 0.00000E+00
 -1       247 5.68740E+01 2.18750E+00 0.00000E+00
 -1       248 5.98740E+01 2.18750E+00 0.00000E+00
 -1       249 6.28740E+01 2.18750E+00 0.00000E+00
 -1       250 6.58740E+01 2.18750E+00 0.00000E+00
 -1       251 6.88740E+01 2.18750E+00 0.00000E+00
 -1       252 7.18740E+01 2.18750E+00 0.00000E+00
 -1       253 7.48740E+01 2.18750E+00 0.00000E+00
 -1       254 7.78740E+01 2.18750E+00 0.00000E+00
 -1       255 8.08740E+01 2.18750E+00 0.00000E+00
 -1       256 8.38740E+01 2.18750E+00 0.00000E+00
 -1       257 8.68740E+01 2.18750E+00 0.00000E+00
 -1       258 8.98740E+01 2.18750E+00 0.00000E+00
 -1       259 9.28740E+01 2.18750E+00 0.00000E+00
 -1       260 9.58740E+01 2.18750E+00 0.00000E+00
 -1       261 9.88740E+01 2.18750E+00 0.00000E+00
 -1       262 1.01874E+02 2.18750E+00 0.00000E+00
 -1       263 1.04874E+02 2.18750E+00 0.00000E+00
 -1       264 1.07874E+02 2.18750E+00 0.00000E+00
 -1       265 1.10874E+02 2.18750E+00 0.00000E+00
 -1       266 1.13874E+02 2.18750E+00 0.00000E+00
 -1       267 1.16874E+02 2.18750E+00 0.00000E+00
 -1       268 1.19874E+02 2.18750E+00 0.00000E+00
 -1       269 1.22874E+02 2.18750E+00 0.00000E+00
 -1       270 1.25874E+02 2.18750E+00 0.00000E+00
 -1       271 1.28874E+02 2.18750E+00 0.00000E+00
 -1       272 1.31874E+02 2.18750E+00 0.00000E+00
 -1       273 1.34874E+02 2.18750E+00 0.00000E+00
 -1       274 1.37874E+02 2.18750E+00 0.00000E+00
 -1       275 1.40874E+02 2.18750E+00 0.00000E+00
 -1       276 1.43874E+02 2.18750E+00 0.00000E+00
 -1       277 1.46874E+02 2.18750E+00 0.00000E+00
 -1       278 1.47402E+02 4.42500E+00 0.00000E+00
 -1       279 1.47402E+02 7.37500E+00 0.00000E+00
 -1       280 1.47402E+02 1.02750E+01 0.00000E+00
 -1       281 1.47402E+02 1.29250E+01 0.00000E+00
 -1       282 1.47402E+02 1.52250E+01 0.00000E+00
 -1       283 1.47402E+02 1.75250E+01 0.00000E+00
 -1       284 1.47402E+02 1.95750E+01 0.00000E+00
 -1       285 1.47402E+02 2.15750E+01 0.00000E+00
 -1       286 1.47402E+02 2.38250E+01 0.00000E+00
 -1       287 1.47402E+02 2.60250E+01 0.00000E+00
 -1       288 1.47402E+02 2.83750E+01 0.00000E+00
 -1       289 1.47402E+02 3.09250E+01 0.00000E+00
 -1       290 1.47402E+02 3.38750E+01 0.00000E+00
 -1       291 1.47402E+02 3.68250E+01 0.00000E+00
 -1       292 1.47402E+02 3.97250E+01 0.00000E+00
 -1       293 1.47402E+02 4.26750E+01 0.00000E+00
 -1       294 1.46526E+02 4.50385E+01 0.00000E+00
 -1       295 1.45940E+02 1.96832E+01 0.00000E+00
 -1       296 1.45305E+02 1.79709E+01 0.00000E+00
 -1       297 1.44687E+02 1.62809E+01 0.00000E+00
 -1       298 1.43430E+02 1.50287E+01 0.00000E+00
 -1       299 1.42158E+02 1.39429E+01 0.00000E+00
 -1       300 1.40647E+02 1.31133E+01 0.00000E+00
 -1       301 1.38994E+02 1.25361E+01 0.00000E+00
 -1       302 1.37174E+02 1.22407E+01 0.00000E+00
 -1       303 1.35460E+02 1.27342E+01 0.00000E+00
 -1       304 1.33766E+02 1.31969E+01 0.00000E+00
 -1       305 1.32379E+02 1.42742E+01 0.00000E+00
 -1       306 1.31039E+02 1.53745E+01 0.00000E+00
 -1       307 1.30201E+02 1.69684E+01 0.00000E+00
 -1       308 1.29251E+02 1.85543E+01 0.00000E+00
 -1       309 1.29239E+02 2.03351E+01 0.00000E+00
 -1       310 1.29272E+02 2.20583E+01 0.00000E+00
 -1       311 1.29766E+02 2.37859E+01 0.00000E+00
 -1       312 1.30525E+02 2.55235E+01 0.00000E+00
 -1       313 1.31914E+02 2.67427E+01 0.00000E+00
 -1       314 1.33305E+02 2.78615E+01 0.00000E+00
 -1       315 1.35025E+02 2.84440E+01 0.00000E+00
 -1       316 1.36739E+02 2.87919E+01 0.00000E+00
 -1       317 1.38492E+02 2.89347E+01 0.00000E+00
 -1       318 1.40198E+02 2.83622E+01 0.00000E+00
 -1       319 1.41815E+02 2.75890E+01 0.00000E+00
 -1       320 1.43354E+02 2.65795E+01 0.00000E+00
 -1       321 1.44389E+02 2.50350E+01 0.00000E+00
 -1       322 1.45358E+02 2.33994E+01 0.00000E+00
 -1       323 1.45617E+02 2.15363E+01 0.00000E+00
 -1       324 5.19600E+00 4.11500E+01 0.00000E+00
 -1       325 5.19600E+00 4.41000E+01 0.00000E+00
 -1       326 5.19600E+00 3.52750E+01 0.00000E+00
 -1       327 5.19600E+00 3.23250E+01 0.00000E+00
 -1       328 5.19600E+00 2.93750E+01 0.00000E+00
 -1       329 5.19600E+00 2.64250E+01 0.00000E+00
 -1       330 5.19600E+00 2.34750E+01 0.00000E+00
 -1       331 5.19600E+00 2.05250E+01 0.00000E+00
 -1       332 5.19600E+00 1.76250E+01 0.00000E+00
 -1       333 5.19600E+00 1.46750E+01 0.00000E+00
 -1       334 5.19600E+00 1.17250E+01 0.00000E+00
 -1       335 5.19600E+00 8.77500E+00 0.00000E+00
 -1       336 5.19600E+00 5.82500E+00 0.00000E+00
 -1       337 5.53500E+00 4.00625E+00 0.00000E+00
 -1       338 8.53500E+00 4.00625E+00 0.00000E+00
 -1       339 9.15000E+00 4.48040E+01 0.00000E+00
 -1       340 1.21500E+01 4.48040E+01 0.00000E+00
 -1       341 1.51500E+01 4.48040E+01 0.00000E+00
 -1       342 1.81500E+01 4.48040E+01 0.00000E+00
 -1       343 2.11500E+01 4.48040E+01 0.00000E+00
 -1       344 2.41500E+01 4.48040E+01 0.00000E+00
 -1       345 2.71500E+01 4.48040E+01 0.00000E+00
 -1       346 3.01500E+01 4.48040E+01 0.00000E+00
 -1       347 3.31500E+01 4.48040E+01 0.00000E+00
 -1       348 3.61500E+01 4.48040E+01 0.00000E+00
 -1       349 3.91500E+01 4.48040E+01 0.00000E+00
 -1       350 4.21500E+01 4.48040E+01 0.00000E+00
 -1       351 4.51500E+01 4.48040E+01 0.00000E+00
 -1       352 4.81500E+01 4.48040E+01 0.00000E+00
 -1       353 5.11500E+01 4.48040E+01 0.00000E+00
 -1       354 5.41500E+01 4.48040E+01 0.00000E+00
 -1       355 5.71500E+01 4.48040E+01 0.00000E+00
 -1       356 6.01500E+01 4.48040E+01 0.00000E+00
 -1       357 6.31500E+01 4.48040E+01 0.00000E+00
 -1       358 6.61500E+01 4.48040E+01 0.00000E+00
 -1       359 6.91500E+01 4.48040E+01 0.00000E+00
 -1       360 7.21500E+01 4.48040E+01 0.00000E+00
 -1       361 7.51500E+01 4.48040E+01 0.00000E+00
 -1       362 7.81500E+01 4.48040E+01 0.00000E+00
 -1       363 8.11500E+01 4.48040E+01 0.00000E+00
 -1       364 8.41500E+01 4.48040E+01 0.00000E+00
 -1       365 8.71500E+01 4.48040E+01 0.00000E+00
 -1       366 9.01500E+01 4.48040E+01 0.00000E+00
 -1       367 9.31500E+01 4.48040E+01 0.00000E+00
 -1       368 9.61500E+01 4.48040E+01 0.00000E+00
 -1       369 9.91500E+01 4.48040E+01 0.00000E+00
 -1       370 1.02150E+02 4.48040E+01 0.00000E+00
 -1       371 1.05150E+02 4.48040E+01 0.00000E+00
 -1       372 1.08150E+02 4.48040E+01 0.00000E+00
 -1       373 1.11150E+02 4.48040E+01 0.00000E+00
 -1       374 1.14150E+02 4.48040E+01 0.00000E+00
 -1       375 1.17150E+02 4.48040E+01 0.00000E+00
 -1       376 1.20150E+02 4.48040E+01 0.00000E+00
 -1       377 1.23150E+02 4.48040E+01 0.00000E+00
 -1       378 1.26150E+02 4.48040E+01 0.00000E+00
 -1       379 1.29150E+02 4.48040E+01 0.00000E+00
 -1       380 1.32150E+02 4.48040E+01 0.00000E+00
 -1       381 1.35150E+02 4.48040E+01 0.00000E+00
 -1       382 1.38150E+02 4.48040E+01 0.00000E+00
 -1       383 1.41150E+02 4.48040E+01 0.00000E+00
 -1       384 1.43838E+02 4.49212E+01 0.00000E+00
 -1       385 1.15350E+01 4.00625E+00 0.00000E+00
 -1       386 1.45350E+01 4.00625E+00 0.00000E+00
 -1       387 1.75350E+01 4.00625E+00 0.00000E+00
 -1       388 2.05350E+01 4.00625E+00 0.00000E+00
 -1       389 2.35350E+01 4.00625E+00 0.00000E+00
 -1       390 2.65350E+01 4.00625E+00 0.00000E+00
 -1       391 2.95350E+01 4.00625E+00 0.00000E+00
 -1       392 3.25350E+01 4.00625E+00 0.00000E+00
 -1       393 3.55350E+01 4.00625E+00 0.00000E+00
 -1       394 3.85350E+01 4.00625E+00 0.00000E+00
 -1       395 4.15350E+01 4.00625E+00 0.00000E+00
 -1       396 4.45350E+01 4.00625E+00 0.00000E+00
 -1       397 4.75350E+01 4.00625E+00 0.00000E+00
 -1       398 5.05350E+01 4.00625E+00 0.00000E+00
 -1       399 5.35350E+01 4.00625E+00 0.00000E+00
 -1       400 5.65350E+01 4.00625E+00 0.00000E+00
 -1       401 5.95350E+01 4.00625E+00 0.00000E+00
 -1       402 6.25350E+01 4.00625E+00 0.00000E+00
 -1       403 6.55350E+01 4.00625E+00 0.00000E+00
 -1       404 6.85350E+01 4.00625E+00 0.00000E+00
 -1       405 7.15350E+01 4.00625E+00 0.00000E+00
 -1       406 7.45350E+01 4.00625E+00 0.00000E+00
 -1       407 7.75350E+01 4.00625E+00 0.00000E+00
 -1       408 8.05350E+01 4.00625E+00 0.00000E+00
 -1       409 8.35350E+01 4.00625E+00 0.00000E+00
 -1       410 8.65350E+01 4.00625E+00 0.00000E+00
 -1       411 8.95350E+01 4.00625E+00 0.00000E+00
 -1       412 9.25350E+01 4.00625E+00 0.00000E+00
 -1       413 9.55350E+01 4.00625E+00 0.00000E+00
 -1       414 9.85350E+01 4.00625E+00 0.00000E+00
 -1       415 1.01535E+02 4.00625E+00 0.00000E+00
 -1       416 1.04535E+02 4.00625E+00 0.00000E+00
 -1       417 1.07535E+02 4.00625E+00 0.00000E+00
 -1       418 1.10535E+02 4.00625E+00 0.00000E+00
 -1       419 1.13535E+02 4.00625E+00 0.00000E+00
 -1       420 1.16535E+02 4.00625E+00 0.00000E+00
 -1       421 1.19535E+02 4.00625E+00 0.00000E+00
 -1       422 1.22535E+02 4.00625E+00 0.00000E+00
 -1       423 1.25535E+02 4.00625E+00 0.00000E+00
 -1       424 1.28535E+02 4.00625E+00 0.00000E+00
 -1       425 1.31535E+02 4.00625E+00 0.00000E+00
 -1       426 1.34535E+02 4.00625E+00 0.00000E+00
 -1       427 1.37535E+02 4.00625E+00 0.00000E+00
 -1       428 1.40535E+02 4.00625E+00 0.00000E+00
 -1       429 1.43535E+02 4.00625E+00 0.00000E+00
 -1       430 1.45469E+02 4.21562E+00 0.00000E+00
 -1       431 1.45184E+02 1.16000E+01 0.00000E+00
 -1       432 1.45184E+02 8.70000E+00 0.00000E+00
 -1       433 1.45326E+02 6.45781E+00 0.00000E+00
 -1       434 1.45352E+02 2.72000E+01 0.00000E+00
 -1       435 1.45352E+02 2.97500E+01 0.00000E+00
 -1       436 1.45352E+02 3.27000E+01 0.00000E+00
 -1       437 1.45352E+02 3.56500E+01 0.00000E+00
 -1       438 1.45352E+02 3.85500E+01 0.00000E+00
 -1       439 1.45352E+02 4.15000E+01 0.00000E+00
 -1       440 1.46292E+02 1.66519E+01 0.00000E+00
 -1       441 1.45150E+02 1.45581E+01 0.00000E+00
 -1       442 1.43690E+02 1.34364E+01 0.00000E+00
 -1       443 5.19600E+00 3.82125E+01 0.00000E+00
 -1       444 1.40248E+02 1.16009E+01 0.00000E+00
 -1       445 1.38332E+02 1.08608E+01 0.00000E+00
 -1       446 1.35889E+02 1.10002E+01 0.00000E+00
 -1       447 1.34196E+02 1.14629E+01 0.00000E+00
 -1       448 1.32278E+02 1.27118E+01 0.00000E+00
 -1       449 1.30833E+02 1.37578E+01 0.00000E+00
 -1       450 1.29250E+02 1.54516E+01 0.00000E+00
 -1       451 1.28300E+02 1.70375E+01 0.00000E+00
 -1       452 1.27698E+02 1.94347E+01 0.00000E+00
 -1       453 1.27730E+02 2.11578E+01 0.00000E+00
 -1       454 1.28273E+02 2.32783E+01 0.00000E+00
 -1       455 1.28728E+02 2.52744E+01 0.00000E+00
 -1       456 1.30199E+02 2.72960E+01 0.00000E+00
 -1       457 1.31589E+02 2.84148E+01 0.00000E+00
 -1       458 1.33669E+02 2.96186E+01 0.00000E+00
 -1       459 1.35607E+02 2.99703E+01 0.00000E+00
 -1       460 1.37483E+02 3.04892E+01 0.00000E+00
 -1       461 1.39837E+02 3.01156E+01 0.00000E+00
 -1       462 1.41454E+02 2.93424E+01 0.00000E+00
 -1       463 1.43387E+02 2.83083E+01 0.00000E+00
 -1       464 1.42147E+02 1.21715E+01 0.00000E+00
 -1       465 1.46065E+02 2.51273E+01 0.00000E+00
 -1       466 1.00350E+01 6.60425E+00 0.00000E+00
 -1       467 7.79400E+00 3.08500E+01 0.00000E+00
 -1       468 7.79400E+00 3.38000E+01 0.00000E+00
 -1       469 7.79400E+00 2.49500E+01 0.00000E+00
 -1       470 7.79400E+00 2.20000E+01 0.00000E+00
 -1       471 7.79400E+00 1.91000E+01 0.00000E+00
 -1       472 7.79400E+00 1.61500E+01 0.00000E+00
 -1       473 7.79400E+00 1.32000E+01 0.00000E+00
 -1       474 7.79400E+00 1.02500E+01 0.00000E+00
 -1       475 1.43469E+02 3.12250E+01 0.00000E+00
 -1       476 1.43134E+02 3.41750E+01 0.00000E+00
 -1       477 1.30350E+01 6.60425E+00 0.00000E+00
 -1       478 1.06500E+01 4.22060E+01 0.00000E+00
 -1       479 1.41643E+02 1.04041E+01 0.00000E+00
 -1       480 1.36500E+01 4.22060E+01 0.00000E+00
 -1       481 1.66500E+01 4.22060E+01 0.00000E+00
 -1       482 1.96500E+01 4.22060E+01 0.00000E+00
 -1       483 2.26500E+01 4.22060E+01 0.00000E+00
 -1       484 2.56500E+01 4.22060E+01 0.00000E+00
 -1       485 2.86500E+01 4.22060E+01 0.00000E+00
 -1       486 3.16500E+01 4.22060E+01 0.00000E+00
 -1       487 3.46500E+01 4.22060E+01 0.00000E+00
 -1       488 3.76500E+01 4.22060E+01 0.00000E+00
 -1       489 4.06500E+01 4.22060E+01 0.00000E+00
 -1       490 4.36500E+01 4.22060E+01 0.00000E+00
 -1       491 4.66500E+01 4.22060E+01 0.00000E+00
 -1       492 4.96500E+01 4.22060E+01 0.00000E+00
 -1       493 5.26500E+01 4.22060E+01 0.00000E+00
 -1       494 5.56500E+01 4.22060E+01 0.00000E+00
 -1       495 5.86500E+01 4.22060E+01 0.00000E+00
 -1       496 6.16500E+01 4.22060E+01 0.00000E+00
 -1       497 6.46500E+01 4.22060E+01 0.00000E+00
 -1       498 6.76500E+01 4.22060E+01 0.00000E+00
 -1       499 7.06500E+01 4.22060E+01 0.00000E+00
 -1       500 7.36500E+01 4.22060E+01 0.00000E+00
 -1       501 7.66500E+01 4.22060E+01 0.00000E+00
 -1       502 7.96500E+01 4.22060E+01 0.00000E+00
 -1       503 8.26500E+01 4.22060E+01 0.00000E+00
 -1       504 8.56500E+01 4.22060E+01 0.00000E+00
 -1       505 8.86500E+01 4.22060E+01 0.00000E+00
 -1       506 9.16500E+01 4.22060E+01 0.00000E+00
 -1       507 9.46500E+01 4.22060E+01 0.00000E+00
 -1       508 9.76500E+01 4.22060E+01 0.00000E+00
 -1       509 1.00650E+02 4.22060E+01 0.00000E+00
 -1       510 1.03650E+02 4.22060E+01 0.00000E+00
 -1       511 1.06650E+02 4.22060E+01 0.00000E+00
 -1       512 1.09650E+02 4.22060E+01 0.00000E+00
 -1       513 1.12650E+02 4.22060E+01 0.00000E+00
 -1       514 1.15650E+02 4.22060E+01 0.00000E+00
 -1       515 1.18650E+02 4.22060E+01 0.00000E+00
 -1       516 1.21650E+02 4.22060E+01 0.00000E+00
 -1       517 1.24650E+02 4.22060E+01 0.00000E+00
 -1       518 1.27650E+02 4.22060E+01 0.00000E+00
 -1       519 1.30650E+02 4.22060E+01 0.00000E+00
 -1       520 1.33650E+02 4.22060E+01 0.00000E+00
 -1       521 1.36650E+02 4.22060E+01 0.00000E+00
 -1       522 1.39650E+02 4.22060E+01 0.00000E+00
 -1       523 1.90350E+01 6.60425E+00 0.00000E+00
 -1       524 2.20350E+01 6.60425E+00 0.00000E+00
 -1       525 2.50350E+01 6.60425E+00 0.00000E+00
 -1       526 2.80350E+01 6.60425E+00 0.00000E+00
 -1       527 3.10350E+01 6.60425E+00 0.00000E+00
 -1       528 3.40350E+01 6.60425E+00 0.00000E+00
 -1       529 3.70350E+01 6.60425E+00 0.00000E+00
 -1       530 4.00350E+01 6.60425E+00 0.00000E+00
 -1       531 4.30350E+01 6.60425E+00 0.00000E+00
 -1       532 4.60350E+01 6.60425E+00 0.00000E+00
 -1       533 4.90350E+01 6.60425E+00 0.00000E+00
 -1       534 5.20350E+01 6.60425E+00 0.00000E+00
 -1       535 5.50350E+01 6.60425E+00 0.00000E+00
 -1       536 5.80350E+01 6.60425E+00 0.00000E+00
 -1       537 6.10350E+01 6.60425E+00 0.00000E+00
 -1       538 6.40350E+01 6.60425E+00 0.00000E+00
 -1       539 6.70350E+01 6.60425E+00 0.00000E+00
 -1       540 7.00350E+01 6.60425E+00 0.00000E+00
 -1       541 7.30350E+01 6.60425E+00 0.00000E+00
 -1       542 7.60350E+01 6.60425E+00 0.00000E+00
 -1       543 7.90350E+01 6.60425E+00 0.00000E+00
 -1       544 8.20350E+01 6.60425E+00 0.00000E+00
 -1       545 8.50350E+01 6.60425E+00 0.00000E+00
 -1       546 8.80350E+01 6.60425E+00 0.00000E+00
 -1       547 9.10350E+01 6.60425E+00 0.00000E+00
 -1       548 9.40350E+01 6.60425E+00 0.00000E+00
 -1       549 9.70350E+01 6.60425E+00 0.00000E+00
 -1       550 1.00035E+02 6.60425E+00 0.00000E+00
 -1       551 1.03035E+02 6.60425E+00 0.00000E+00
 -1       552 1.06035E+02 6.60425E+00 0.00000E+00
 -1       553 1.09035E+02 6.60425E+00 0.00000E+00
 -1       554 1.12035E+02 6.60425E+00 0.00000E+00
 -1       555 1.15035E+02 6.60425E+00 0.00000E+00
 -1       556 1.18035E+02 6.60425E+00 0.00000E+00
 -1       557 1.21035E+02 6.60425E+00 0.00000E+00
 -1       558 1.24035E+02 6.60425E+00 0.00000E+00
 -1       559 1.27035E+02 6.60425E+00 0.00000E+00
 -1       560 1.30035E+02 6.60425E+00 0.00000E+00
 -1       561 1.33035E+02 6.60425E+00 0.00000E+00
 -1       562 1.36035E+02 6.60425E+00 0.00000E+00
 -1       563 1.39035E+02 6.60425E+00 0.00000E+00
 -1       564 1.42035E+02 6.60425E+00 0.00000E+00
 -1       565 7.92300E+00 4.16780E+01 0.00000E+00
 -1       566 1.43413E+02 1.10020E+01 0.00000E+00
 -1       567 1.43134E+02 3.70750E+01 0.00000E+00
 -1       568 1.43134E+02 4.00250E+01 0.00000E+00
 -1       569 1.60350E+01 6.60425E+00 0.00000E+00
 -1       570 1.38955E+02 3.21619E+01 0.00000E+00
 -1       571 1.27805E+02 2.74914E+01 0.00000E+00
 -1       572 1.28972E+02 1.36052E+01 0.00000E+00
 -1       573 1.39727E+02 9.66398E+00 0.00000E+00
 -1       574 7.79400E+00 2.79000E+01 0.00000E+00
 -1       575 1.37003E+02 9.05092E+00 0.00000E+00
 -1       576 1.30648E+02 1.19814E+01 0.00000E+00
 -1       577 1.34634E+02 9.73879E+00 0.00000E+00
 -1       578 1.26828E+02 2.46574E+01 0.00000E+00
 -1       579 1.32347E+02 1.07203E+01 0.00000E+00
 -1       580 1.27376E+02 1.54061E+01 0.00000E+00
 -1       581 1.26579E+02 1.78795E+01 0.00000E+00
 -1       582 1.26167E+02 2.03256E+01 0.00000E+00
 -1       583 1.34392E+02 3.11523E+01 0.00000E+00