    1C
    1UUSER                                                              
    1UDATE              27.october.2022                                 
    1UTIME              00:53:53                                        
    1UHOST                                                              
    1UPGM               CalculiX                                        
    1UVERSION           Version 2.17                             
    1UCOMPILETIME       Thu Jul 23 21:43:50 CEST 2020                    
    1UDIR                                                               
    1UDBN                                                               
    1UMAT    1SOLIDMATERIAL                                             
    2C                          4314                                     1
 -1         1 5.72727E+01 4.49450E+01 0.00000E+00
 -1         2 6.75380E+01 3.87532E+01 0.00000E+00
 -1         3 1.50000E+02 0.00000E+00 0.00000E+00
 -1         4 1.50000E+02 5.00000E+01 0.00000E+00
 -1         5 0.00000E+00 0.00000E+00 0.00000E+00
 -1         6 0.00000E+00 5.00000E+01 0.00000E+00
 -1         7 0.00000E+00 4.70500E+01 0.00000E+00
 -1         8 0.00000E+00 4.41000E+01 0.00000E+00
 -1         9 0.00000E+00 4.11500E+01 0.00000E+00
 -1        10 0.00000E+00 3.82000E+01 0.00000E+00
 -1        11 0.00000E+00 3.52500E+01 0.00000E+00
 -1        12 0.00000E+00 3.23500E+01 0.00000E+00
 -1        13 0.00000E+00 2.94000E+01 0.00000E+00
 -1        14 0.00000E+00 2.64500E+01 0.00000E+00
 -1        15 0.00000E+00 2.35000E+01 0.00000E+00
 -1        16 0.00000E+00 2.05500E+01 0.00000E+00
 -1        17 0.00000E+00 1.76000E+01 0.00000E+00
 -1        18 0.00000E+00 1.47000E+01 0.00000E+00
 -1        19 0.00000E+00 1.17500E+01 0.00000E+00
 -1        20 0.00000E+00 8.80000E+00 0.00000E+00
 -1        21 0.00000E+00 5.85000E+00 0.00000E+00
 -1        22 0.00000E+00 2.90000E+00 0.00000E+00
 -1        23 3.00000E+00 5.00000E+01 0.00000E+00
 -1        24 6.00000E+00 5.00000E+01 0.00000E+00
 -1        25 9.00000E+00 5.00000E+01 0.00000E+00
 -1        26 1.20000E+01 5.00000E+01 0.00000E+00
 -1        27 1.50000E+01 5.00000E+01 0.00000E+00
 -1        28 1.80000E+01 5.00000E+01 0.00000E+00
 -1        29 2.10000E+01 5.00000E+01 0.00000E+00
 -1        30 2.40000E+01 5.00000E+01 0.00000E+00
 -1        31 2.70000E+01 5.00000E+01 0.00000E+00
 -1        32 3.00000E+01 5.00000E+01 0.00000E+00
 -1        33 3.30000E+01 5.00000E+01 0.00000E+00
 -1        34 3.60000E+01 5.00000E+01 0.00000E+00
 -1        35 3.90000E+01 5.00000E+01 0.00000E+00
 -1        36 4.20000E+01 5.00000E+01 0.00000E+00
 -1        37 4.50000E+01 5.00000E+01 0.00000E+00
 -1        38 4.80000E+01 5.00000E+01 0.00000E+00
 -1        39 5.08500E+01 5.00000E+01 0.00000E+00
 -1        40 5.34000E+01 5.00000E+01 0.00000E+00
 -1        41 5.55000E+01 5.00000E+01 0.00000E+00
 -1        42 5.76000E+01 5.00000E+01 0.00000E+00
 -1        43 5.98500E+01 5.00000E+01 0.00000E+00
 -1        44 6.21000E+01 5.00000E+01 0.00000E+00
 -1        45 6.43500E+01 5.00000E+01 0.00000E+00
 -1        46 6.67500E+01 5.00000E+01 0.00000E+00
 -1        47 6.93000E+01 5.00000E+01 0.00000E+00
 -1        48 7.21500E+01 5.00000E+01 0.00000E+00
 -1        49 7.51500E+01 5.00000E+01 0.00000E+00
 -1        50 7.81500E+01 5.00000E+01 0.00000E+00
 -1        51 8.11500E+01 5.00000E+01 0.00000E+00
 -1        52 8.41500E+01 5.00000E+01 0.00000E+00
 -1        53 8.71500E+01 5.00000E+01 0.00000E+00
 -1        54 9.01500E+01 5.00000E+01 0.00000E+00
 -1        55 9.31500E+01 5.00000E+01 0.00000E+00
 -1        56 9.61500E+01 5.00000E+01 0.00000E+00
 -1        57 9.91500E+01 5.00000E+01 0.00000E+00
 -1        58 1.02150E+02 5.00000E+01 0.00000E+00
 -1        59 1.05150E+02 5.00000E+01 0.00000E+00
 -1        60 1.08150E+02 5.00000E+01 0.00000E+00
 -1        61 1.11150E+02 5.00000E+01 0.00000E+00
 -1        62 1.14150E+02 5.00000E+01 0.00000E+00
 -1        63 1.17150E+02 5.00000E+01 0.00000E+00
 -1        64 1.20150E+02 5.00000E+01 0.00000E+00
 -1        65 1.23150E+02 5.00000E+01 0.00000E+00
 -1        66 1.26150E+02 5.00000E+01 0.00000E+00
 -1        67 1.29150E+02 5.00000E+01 0.00000E+00
 -1        68 1.32150E+02 5.00000E+01 0.00000E+00
 -1        69 1.35150E+02 5.00000E+01 0.00000E+00
 -1        70 1.38150E+02 5.00000E+01 0.00000E+00
 -1        71 1.41150E+02 5.00000E+01 0.00000E+00
 -1        72 1.44150E+02 5.00000E+01 0.00000E+00
 -1        73 1.47150E+02 5.00000E+01 0.00000E+00
 -1        74 3.15000E+00 0.00000E+00 0.00000E+00
 -1        75 6.15000E+00 0.00000E+00 0.00000E+00
 -1        76 9.15000E+00 0.00000E+00 0.00000E+00
 -1        77 1.21500E+01 0.00000E+00 0.00000E+00
 -1        78 1.51500E+01 0.00000E+00 0.00000E+00
 -1        79 1.81500E+01 0.00000E+00 0.00000E+00
 -1        80 2.11500E+01 0.00000E+00 0.00000E+00
 -1        81 2.41500E+01 0.00000E+00 0.00000E+00
 -1        82 2.71500E+01 0.00000E+00 0.00000E+00
 -1        83 3.01500E+01 0.00000E+00 0.00000E+00
 -1        84 3.31500E+01 0.00000E+00 0.00000E+00
 -1        85 3.61500E+01 0.00000E+00 0.00000E+00
 -1        86 3.91500E+01 0.00000E+00 0.00000E+00
 -1        87 4.21500E+01 0.00000E+00 0.00000E+00
 -1        88 4.51500E+01 0.00000E+00 0.00000E+00
 -1        89 4.81500E+01 0.00000E+00 0.00000E+00
 -1        90 5.11500E+01 0.00000E+00 0.00000E+00
 -1        91 5.41500E+01 0.00000E+00 0.00000E+00
 -1        92 5.71500E+01 0.00000E+00 0.00000E+00
 -1        93 6.01500E+01 0.00000E+00 0.00000E+00
 -1        94 6.31500E+01 0.00000E+00 0.00000E+00
 -1        95 6.61500E+01 0.00000E+00 0.00000E+00
 -1        96 6.91500E+01 0.00000E+00 0.00000E+00
 -1        97 7.21500E+01 0.00000E+00 0.00000E+00
 -1        98 7.51500E+01 0.00000E+00 0.00000E+00
 -1        99 7.81500E+01 0.00000E+00 0.00000E+00
 -1       100 8.11500E+01 0.00000E+00 0.00000E+00
 -1       101 8.41500E+01 0.00000E+00 0.00000E+00
 -1       102 8.71500E+01 0.00000E+00 0.00000E+00
 -1       103 9.01500E+01 0.00000E+00 0.00000E+00
 -1       104 9.31500E+01 0.00000E+00 0.00000E+00
 -1       105 9.61500E+01 0.00000E+00 0.00000E+00
 -1       106 9.91500E+01 0.00000E+00 0.00000E+00
 -1       107 1.02150E+02 0.00000E+00 0.00000E+00
 -1       108 1.05150E+02 0.00000E+00 0.00000E+00
 -1       109 1.08150E+02 0.00000E+00 0.00000E+00
 -1       110 1.11150E+02 0.00000E+00 0.00000E+00
 -1       111 1.14150E+02 0.00000E+00 0.00000E+00
 -1       112 1.17150E+02 0.00000E+00 0.00000E+00
 -1       113 1.20150E+02 0.00000E+00 0.00000E+00
 -1       114 1.23150E+02 0.00000E+00 0.00000E+00
 -1       115 1.26150E+02 0.00000E+00 0.00000E+00
 -1       116 1.29150E+02 0.00000E+00 0.00000E+00
 -1       117 1.32150E+02 0.00000E+00 0.00000E+00
 -1       118 1.35150E+02 0.00000E+00 0.00000E+00
 -1       119 1.38150E+02 0.00000E+00 0.00000E+00
 -1       120 1.41150E+02 0.00000E+00 0.00000E+00
 -1       121 1.44150E+02 0.00000E+00 0.00000E+00
 -1       122 1.47150E+02 0.00000E+00 0.00000E+00
 -1       123 1.50000E+02 2.95000E+00 0.00000E+00
 -1       124 1.50000E+02 5.90000E+00 0.00000E+00
 -1       125 1.50000E+02 8.85000E+00 0.00000E+00
 -1       126 1.50000E+02 1.18000E+01 0.00000E+00
 -1       127 1.50000E+02 1.47500E+01 0.00000E+00
 -1       128 1.50000E+02 1.76500E+01 0.00000E+00
 -1       129 1.50000E+02 2.06000E+01 0.00000E+00
 -1       130 1.50000E+02 2.35500E+01 0.00000E+00
 -1       131 1.50000E+02 2.65000E+01 0.00000E+00
 -1       132 1.50000E+02 2.94500E+01 0.00000E+00
 -1       133 1.50000E+02 3.24000E+01 0.00000E+00
 -1       134 1.50000E+02 3.53000E+01 0.00000E+00
 -1       135 1.50000E+02 3.82500E+01 0.00000E+00
 -1       136 1.50000E+02 4.12000E+01 0.00000E+00
 -1       137 1.50000E+02 4.41500E+01 0.00000E+00
 -1       138 1.50000E+02 4.71000E+01 0.00000E+00
 -1       139 6.73646E+01 3.72050E+01 0.00000E+00
 -1       140 6.69056E+01 3.58457E+01 0.00000E+00
 -1       141 6.62093E+01 3.46500E+01 0.00000E+00
 -1       142 6.52532E+01 3.35796E+01 0.00000E+00
 -1       143 6.40073E+01 3.26734E+01 0.00000E+00
 -1       144 6.25438E+01 3.20467E+01 0.00000E+00
 -1       145 6.10661E+01 3.17732E+01 0.00000E+00
 -1       146 5.97204E+01 3.18011E+01 0.00000E+00
 -1       147 5.81679E+01 3.21667E+01 0.00000E+00
 -1       148 5.68723E+01 3.27897E+01 0.00000E+00
 -1       149 5.57337E+01 3.36621E+01 0.00000E+00
 -1       150 5.47844E+01 3.47662E+01 0.00000E+00
 -1       151 5.40730E+01 3.60693E+01 0.00000E+00
 -1       152 5.36440E+01 3.75394E+01 0.00000E+00
 -1       153 5.35411E+01 3.89616E+01 0.00000E+00
 -1       154 5.37482E+01 4.04559E+01 0.00000E+00
 -1       155 5.42523E+01 4.18339E+01 0.00000E+00
 -1       156 5.49873E+01 4.30181E+01 0.00000E+00
 -1       157 5.60547E+01 4.41291E+01 0.00000E+00
 -1       158 5.85882E+01 4.54762E+01 0.00000E+00
 -1       159 6.00210E+01 4.57341E+01 0.00000E+00
 -1       160 6.14147E+01 4.56981E+01 0.00000E+00
 -1       161 6.28654E+01 4.53550E+01 0.00000E+00
 -1       162 6.41916E+01 4.47241E+01 0.00000E+00
 -1       163 6.53265E+01 4.38591E+01 0.00000E+00
 -1       164 6.62479E+01 4.28025E+01 0.00000E+00
 -1       165 6.69354E+01 4.15945E+01 0.00000E+00
 -1       166 6.73723E+01 4.02671E+01 0.00000E+00
 -1       167 2.59800E+00 4.55750E+01 0.00000E+00
 -1       168 2.59800E+00 4.26250E+01 0.00000E+00
 -1       169 2.59800E+00 3.96750E+01 0.00000E+00
 -1       170 2.59800E+00 3.67250E+01 0.00000E+00
 -1       171 2.59800E+00 3.38250E+01 0.00000E+00
 -1       172 2.59800E+00 3.08750E+01 0.00000E+00
 -1       173 2.59800E+00 2.79250E+01 0.00000E+00
 -1       174 2.59800E+00 2.49750E+01 0.00000E+00
 -1       175 2.59800E+00 2.20250E+01 0.00000E+00
 -1       176 2.59800E+00 1.90750E+01 0.00000E+00
 -1       177 2.59800E+00 1.61750E+01 0.00000E+00
 -1       178 2.59800E+00 1.32250E+01 0.00000E+00
 -1       179 2.59800E+00 1.02750E+01 0.00000E+00
 -1       180 2.59800E+00 7.32500E+00 0.00000E+00
 -1       181 2.59800E+00 4.37500E+00 0.00000E+00
 -1       182 2.87400E+00 2.18750E+00 0.00000E+00
 -1       183 4.50000E+00 4.74020E+01 0.00000E+00
 -1       184 7.50000E+00 4.74020E+01 0.00000E+00
 -1       185 1.05000E+01 4.74020E+01 0.00000E+00
 -1       186 1.35000E+01 4.74020E+01 0.00000E+00
 -1       187 1.65000E+01 4.74020E+01 0.00000E+00
 -1       188 1.95000E+01 4.74020E+01 0.00000E+00
 -1       189 2.25000E+01 4.74020E+01 0.00000E+00
 -1       190 2.55000E+01 4.74020E+01 0.00000E+00
 -1       191 2.85000E+01 4.74020E+01 0.00000E+00
 -1       192 3.15000E+01 4.74020E+01 0.00000E+00
 -1       193 3.45000E+01 4.74020E+01 0.00000E+00
 -1       194 3.75000E+01 4.74020E+01 0.00000E+00
 -1       195 4.05000E+01 4.74020E+01 0.00000E+00
 -1       196 4.35000E+01 4.74020E+01 0.00000E+00
 -1       197 4.65000E+01 4.74020E+01 0.00000E+00
 -1       198 4.93500E+01 4.74020E+01 0.00000E+00
 -1       199 5.19000E+01 4.74020E+01 0.00000E+00
 -1       200 5.65500E+01 4.82849E+01 0.00000E+00
 -1       201 5.88000E+01 4.82849E+01 0.00000E+00
 -1       202 6.10500E+01 4.82849E+01 0.00000E+00
 -1       203 6.33000E+01 4.82849E+01 0.00000E+00
 -1       204 6.57000E+01 4.82849E+01 0.00000E+00
 -1       205 6.82500E+01 4.82849E+01 0.00000E+00
 -1       206 7.11000E+01 4.82849E+01 0.00000E+00
 -1       207 7.41000E+01 4.82849E+01 0.00000E+00
 -1       208 7.71000E+01 4.82849E+01 0.00000E+00
 -1       209 8.01000E+01 4.82849E+01 0.00000E+00
 -1       210 8.31000E+01 4.82849E+01 0.00000E+00
 -1       211 8.61000E+01 4.82849E+01 0.00000E+00
 -1       212 8.91000E+01 4.82849E+01 0.00000E+00
 -1       213 9.21000E+01 4.82849E+01 0.00000E+00
 -1       214 9.51000E+01 4.82849E+01 0.00000E+00
 -1       215 9.81000E+01 4.82849E+01 0.00000E+00
 -1       216 1.01100E+02 4.82849E+01 0.00000E+00
 -1       217 1.04100E+02 4.82849E+01 0.00000E+00
 -1       218 1.07100E+02 4.82849E+01 0.00000E+00
 -1       219 1.10100E+02 4.82849E+01 0.00000E+00
 -1       220 1.13100E+02 4.82849E+01 0.00000E+00
 -1       221 1.16100E+02 4.82849E+01 0.00000E+00
 -1       222 1.19100E+02 4.82849E+01 0.00000E+00
 -1       223 1.22100E+02 4.82849E+01 0.00000E+00
 -1       224 1.25100E+02 4.82849E+01 0.00000E+00
 -1       225 1.28100E+02 4.82849E+01 0.00000E+00
 -1       226 1.31100E+02 4.82849E+01 0.00000E+00
 -1       227 1.34100E+02 4.82849E+01 0.00000E+00
 -1       228 1.37100E+02 4.82849E+01 0.00000E+00
 -1       229 1.40100E+02 4.82849E+01 0.00000E+00
 -1       230 1.43100E+02 4.82849E+01 0.00000E+00
 -1       231 1.46100E+02 4.82849E+01 0.00000E+00
 -1       232 1.48050E+02 4.76924E+01 0.00000E+00
 -1       233 5.87400E+00 2.18750E+00 0.00000E+00
 -1       234 8.87400E+00 2.18750E+00 0.00000E+00
 -1       235 1.18740E+01 2.18750E+00 0.00000E+00
 -1       236 1.48740E+01 2.18750E+00 0.00000E+00
 -1       237 1.78740E+01 2.18750E+00 0.00000E+00
 -1       238 2.08740E+01 2.18750E+00 0.00000E+00
 -1       239 2.38740E+01 2.18750E+00 0.00000E+00
 -1       240 2.68740E+01 2.18750E+00 0.00000E+00
 -1       241 2.98740E+01 2.18750E+00 0.00000E+00
 -1       242 3.28740E+01 2.18750E+00 0.00000E+00
 -1       243 3.58740E+01 2.18750E+00 0.00000E+00
 -1       244 3.88740E+01 2.18750E+00 0.00000E+00
 -1       245 4.18740E+01 2.18750E+00 0.00000E+00
 -1       246 4.48740E+01 2.18750E+00 0.00000E+00
 -1       247 4.78740E+01 2.18750E+00 0.00000E+00
 -1       248 5.08740E+01 2.18750E+00 0.00000E+00
 -1       249 5.38740E+01 2.18750E+00 0.00000E+00
 -1       250 5.68740E+01 2.18750E+00 0.00000E+00
 -1       251 5.98740E+01 2.18750E+00 0.00000E+00
 -1       252 6.28740E+01 2.18750E+00 0.00000E+00
 -1       253 6.58740E+01 2.18750E+00 0.00000E+00
 -1       254 6.88740E+01 2.18750E+00 0.00000E+00
 -1       255 7.18740E+01 2.18750E+00 0.00000E+00
 -1       256 7.48740E+01 2.18750E+00 0.00000E+00
 -1       257 7.78740E+01 2.18750E+00 0.00000E+00
 -1       258 8.08740E+01 2.18750E+00 0.00000E+00
 -1       259 8.38740E+01 2.18750E+00 0.00000E+00
 -1       260 8.68740E+01 2.18750E+00 0.00000E+00
 -1       261 8.98740E+01 2.18750E+00 0.00000E+00
 -1       262 9.28740E+01 2.18750E+00 0.00000E+00
 -1       263 9.58740E+01 2.18750E+00 0.00000E+00
 -1       264 9.88740E+01 2.18750E+00 0.00000E+00
 -1       265 1.01874E+02 2.18750E+00 0.00000E+00
 -1       266 1.04874E+02 2.18750E+00 0.00000E+00
 -1       267 1.07874E+02 2.18750E+00 0.00000E+00
 -1       268 1.10874E+02 2.18750E+00 0.00000E+00
 -1       269 1.13874E+02 2.18750E+00 0.00000E+00
 -1       270 1.16874E+02 2.18750E+00 0.00000E+00
 -1       271 1.19874E+02 2.18750E+00 0.00000E+00
 -1       272 1.22874E+02 2.18750E+00 0.00000E+00
 -1       273 1.25874E+02 2.18750E+00 0.00000E+00
 -1       274 1.28874E+02 2.18750E+00 0.00000E+00
 -1       275 1.31874E+02 2.18750E+00 0.00000E+00
 -1       276 1.34874E+02 2.18750E+00 0.00000E+00
 -1       277 1.37874E+02 2.18750E+00 0.00000E+00
 -1       278 1.40874E+02 2.18750E+00 0.00000E+00
 -1       279 1.43874E+02 2.18750E+00 0.00000E+00
 -1       280 1.46874E+02 2.18750E+00 0.00000E+00
 -1       281 1.47402E+02 4.42500E+00 0.00000E+00
 -1       282 1.47402E+02 7.37500E+00 0.00000E+00
 -1       283 1.47402E+02 1.03250E+01 0.00000E+00
 -1       284 1.47402E+02 1.32750E+01 0.00000E+00
 -1       285 1.47402E+02 1.61750E+01 0.00000E+00
 -1       286 1.47402E+02 1.91250E+01 0.00000E+00
 -1       287 1.47402E+02 2.20750E+01 0.00000E+00
 -1       288 1.47402E+02 2.50250E+01 0.00000E+00
 -1       289 1.47402E+02 2.79750E+01 0.00000E+00
 -1       290 1.47402E+02 3.09250E+01 0.00000E+00
 -1       291 1.47402E+02 3.38250E+01 0.00000E+00
 -1       292 1.47402E+02 3.67750E+01 0.00000E+00
 -1       293 1.47402E+02 3.97250E+01 0.00000E+00
 -1       294 1.47402E+02 4.26750E+01 0.00000E+00
 -1       295 1.47726E+02 4.51837E+01 0.00000E+00
 -1       296 6.89059E+01 3.78162E+01 0.00000E+00
 -1       297 6.83632E+01 3.61107E+01 0.00000E+00
 -1       298 6.76051E+01 3.46377E+01 0.00000E+00
 -1       299 6.66355E+01 3.33071E+01 0.00000E+00
 -1       300 6.54419E+01 3.20105E+01 0.00000E+00
 -1       301 6.38847E+01 3.09375E+01 0.00000E+00
 -1       302 6.20409E+01 3.06354E+01 0.00000E+00
 -1       303 6.03681E+01 3.05750E+01 0.00000E+00
 -1       304 5.85895E+01 3.04776E+01 0.00000E+00
 -1       305 5.69946E+01 3.13856E+01 0.00000E+00
 -1       306 5.55147E+01 3.21970E+01 0.00000E+00
 -1       307 5.43398E+01 3.34237E+01 0.00000E+00
 -1       308 5.32910E+01 3.47966E+01 0.00000E+00
 -1       309 5.23729E+01 3.63709E+01 0.00000E+00
 -1       310 5.23833E+01 3.81630E+01 0.00000E+00
 -1       311 5.22777E+01 3.98982E+01 0.00000E+00
 -1       312 5.27830E+01 4.15902E+01 0.00000E+00
 -1       313 5.35185E+01 4.31095E+01 0.00000E+00
 -1       314 5.45259E+01 4.45297E+01 0.00000E+00
 -1       315 5.59423E+01 4.56139E+01 0.00000E+00
 -1       316 5.74765E+01 4.63348E+01 0.00000E+00
 -1       317 5.90898E+01 4.67984E+01 0.00000E+00
 -1       318 6.07492E+01 4.69281E+01 0.00000E+00
 -1       319 6.24577E+01 4.68695E+01 0.00000E+00
 -1       320 6.40853E+01 4.62100E+01 0.00000E+00
 -1       321 6.54940E+01 4.52558E+01 0.00000E+00
 -1       322 6.67641E+01 4.41827E+01 0.00000E+00
 -1       323 6.76454E+01 4.27982E+01 0.00000E+00
 -1       324 6.83055E+01 4.13099E+01 0.00000E+00
 -1       325 6.88269E+01 3.96603E+01 0.00000E+00
 -1       326 5.44500E+01 4.81173E+01 0.00000E+00
 -1       327 5.19600E+00 4.11500E+01 0.00000E+00
 -1       328 5.19600E+00 4.41000E+01 0.00000E+00
 -1       329 5.19600E+00 3.52750E+01 0.00000E+00
 -1       330 5.19600E+00 3.23250E+01 0.00000E+00
 -1       331 5.19600E+00 2.93750E+01 0.00000E+00
 -1       332 5.19600E+00 2.64250E+01 0.00000E+00
 -1       333 5.19600E+00 2.34750E+01 0.00000E+00
 -1       334 5.19600E+00 2.05250E+01 0.00000E+00
 -1       335 5.19600E+00 1.76250E+01 0.00000E+00
 -1       336 5.19600E+00 1.46750E+01 0.00000E+00
 -1       337 5.19600E+00 1.17250E+01 0.00000E+00
 -1       338 5.19600E+00 8.77500E+00 0.00000E+00
 -1       339 5.19600E+00 5.82500E+00 0.00000E+00
 -1       340 5.53500E+00 4.00625E+00 0.00000E+00
 -1       341 8.53500E+00 4.00625E+00 0.00000E+00
 -1       342 6.98697E+01 3.65704E+01 0.00000E+00
 -1       343 9.00000E+00 4.48040E+01 0.00000E+00
 -1       344 1.20000E+01 4.48040E+01 0.00000E+00
 -1       345 1.50000E+01 4.48040E+01 0.00000E+00
 -1       346 1.80000E+01 4.48040E+01 0.00000E+00
 -1       347 2.10000E+01 4.48040E+01 0.00000E+00
 -1       348 2.40000E+01 4.48040E+01 0.00000E+00
 -1       349 2.70000E+01 4.48040E+01 0.00000E+00
 -1       350 3.00000E+01 4.48040E+01 0.00000E+00
 -1       351 3.30000E+01 4.48040E+01 0.00000E+00
 -1       352 3.60000E+01 4.48040E+01 0.00000E+00
 -1       353 3.90000E+01 4.48040E+01 0.00000E+00
 -1       354 4.20000E+01 4.48040E+01 0.00000E+00
 -1       355 4.50000E+01 4.48040E+01 0.00000E+00
 -1       356 4.78500E+01 4.48040E+01 0.00000E+00
 -1       357 5.04000E+01 4.48040E+01 0.00000E+00
 -1       358 6.82355E+01 3.31597E+01 0.00000E+00
 -1       359 6.69750E+01 4.64022E+01 0.00000E+00
 -1       360 6.96750E+01 4.62346E+01 0.00000E+00
 -1       361 7.26000E+01 4.60671E+01 0.00000E+00
 -1       362 7.56000E+01 4.60671E+01 0.00000E+00
 -1       363 7.86000E+01 4.60671E+01 0.00000E+00
 -1       364 8.16000E+01 4.60671E+01 0.00000E+00
 -1       365 8.46000E+01 4.60671E+01 0.00000E+00
 -1       366 8.76000E+01 4.60671E+01 0.00000E+00
 -1       367 9.06000E+01 4.60671E+01 0.00000E+00
 -1       368 9.36000E+01 4.60671E+01 0.00000E+00
 -1       369 9.66000E+01 4.60671E+01 0.00000E+00
 -1       370 9.96000E+01 4.60671E+01 0.00000E+00
 -1       371 1.02600E+02 4.60671E+01 0.00000E+00
 -1       372 1.05600E+02 4.60671E+01 0.00000E+00
 -1       373 1.08600E+02 4.60671E+01 0.00000E+00
 -1       374 1.11600E+02 4.60671E+01 0.00000E+00
 -1       375 1.14600E+02 4.60671E+01 0.00000E+00
 -1       376 1.17600E+02 4.60671E+01 0.00000E+00
 -1       377 1.20600E+02 4.60671E+01 0.00000E+00
 -1       378 1.23600E+02 4.60671E+01 0.00000E+00
 -1       379 1.26600E+02 4.60671E+01 0.00000E+00
 -1       380 1.29600E+02 4.60671E+01 0.00000E+00
 -1       381 1.32600E+02 4.60671E+01 0.00000E+00
 -1       382 1.35600E+02 4.60671E+01 0.00000E+00
 -1       383 1.38600E+02 4.60671E+01 0.00000E+00
 -1       384 1.41600E+02 4.60671E+01 0.00000E+00
 -1       385 1.44600E+02 4.60671E+01 0.00000E+00
 -1       386 1.46163E+02 4.56254E+01 0.00000E+00
 -1       387 1.33740E+01 4.78550E+00 0.00000E+00
 -1       388 1.63740E+01 4.78550E+00 0.00000E+00
 -1       389 1.93740E+01 4.78550E+00 0.00000E+00
 -1       390 2.23740E+01 4.78550E+00 0.00000E+00
 -1       391 2.53740E+01 4.78550E+00 0.00000E+00
 -1       392 2.83740E+01 4.78550E+00 0.00000E+00
 -1       393 3.13740E+01 4.78550E+00 0.00000E+00
 -1       394 3.43740E+01 4.78550E+00 0.00000E+00
 -1       395 3.73740E+01 4.78550E+00 0.00000E+00
 -1       396 4.03740E+01 4.78550E+00 0.00000E+00
 -1       397 4.33740E+01 4.78550E+00 0.00000E+00
 -1       398 4.63740E+01 4.78550E+00 0.00000E+00
 -1       399 4.93740E+01 4.78550E+00 0.00000E+00
 -1       400 5.23740E+01 4.78550E+00 0.00000E+00
 -1       401 5.53740E+01 4.78550E+00 0.00000E+00
 -1       402 5.83740E+01 4.78550E+00 0.00000E+00
 -1       403 6.13740E+01 4.78550E+00 0.00000E+00
 -1       404 6.43740E+01 4.78550E+00 0.00000E+00
 -1       405 6.73740E+01 4.78550E+00 0.00000E+00
 -1       406 7.03740E+01 4.78550E+00 0.00000E+00
 -1       407 7.33740E+01 4.78550E+00 0.00000E+00
 -1       408 7.63740E+01 4.78550E+00 0.00000E+00
 -1       409 7.93740E+01 4.78550E+00 0.00000E+00
 -1       410 8.23740E+01 4.78550E+00 0.00000E+00
 -1       411 8.53740E+01 4.78550E+00 0.00000E+00
 -1       412 8.83740E+01 4.78550E+00 0.00000E+00
 -1       413 9.13740E+01 4.78550E+00 0.00000E+00
 -1       414 9.43740E+01 4.78550E+00 0.00000E+00
 -1       415 9.73740E+01 4.78550E+00 0.00000E+00
 -1       416 1.00374E+02 4.78550E+00 0.00000E+00
 -1       417 1.03374E+02 4.78550E+00 0.00000E+00
 -1       418 1.06374E+02 4.78550E+00 0.00000E+00
 -1       419 1.09374E+02 4.78550E+00 0.00000E+00
 -1       420 1.12374E+02 4.78550E+00 0.00000E+00
 -1       421 1.15374E+02 4.78550E+00 0.00000E+00
 -1       422 1.18374E+02 4.78550E+00 0.00000E+00
 -1       423 1.21374E+02 4.78550E+00 0.00000E+00
 -1       424 1.24374E+02 4.78550E+00 0.00000E+00
 -1       425 1.27374E+02 4.78550E+00 0.00000E+00
 -1       426 1.30374E+02 4.78550E+00 0.00000E+00
 -1       427 1.33374E+02 4.78550E+00 0.00000E+00
 -1       428 1.36374E+02 4.78550E+00 0.00000E+00
 -1       429 1.39374E+02 4.78550E+00 0.00000E+00
 -1       430 1.42374E+02 4.78550E+00 0.00000E+00
 -1       431 1.44888E+02 4.60525E+00 0.00000E+00
 -1       432 1.44804E+02 1.18000E+01 0.00000E+00
 -1       433 1.44804E+02 8.85000E+00 0.00000E+00
 -1       434 1.44804E+02 1.47000E+01 0.00000E+00
 -1       435 1.44804E+02 1.76500E+01 0.00000E+00
 -1       436 1.44804E+02 2.06000E+01 0.00000E+00
 -1       437 1.44804E+02 2.35500E+01 0.00000E+00
 -1       438 1.44804E+02 2.65000E+01 0.00000E+00
 -1       439 1.44804E+02 2.94500E+01 0.00000E+00
 -1       440 1.44804E+02 3.23500E+01 0.00000E+00
 -1       441 1.44804E+02 3.53000E+01 0.00000E+00
 -1       442 1.44804E+02 3.82500E+01 0.00000E+00
 -1       443 1.44804E+02 4.12000E+01 0.00000E+00
 -1       444 1.09545E+01 4.39587E+00 0.00000E+00
 -1       445 6.89936E+01 3.46326E+01 0.00000E+00
 -1       446 6.72390E+01 3.15540E+01 0.00000E+00
 -1       447 5.36835E+01 4.59470E+01 0.00000E+00
 -1       448 7.09148E+01 3.88261E+01 0.00000E+00
 -1       449 5.19600E+00 3.82125E+01 0.00000E+00
 -1       450 6.56365E+01 3.00617E+01 0.00000E+00
 -1       451 6.31859E+01 2.94246E+01 0.00000E+00
 -1       452 6.12664E+01 2.88912E+01 0.00000E+00
 -1       453 5.94878E+01 2.87938E+01 0.00000E+00
 -1       454 5.70678E+01 2.96596E+01 0.00000E+00
 -1       455 5.55879E+01 3.04710E+01 0.00000E+00
 -1       456 5.39306E+01 3.18558E+01 0.00000E+00
 -1       457 5.26522E+01 3.32216E+01 0.00000E+00
 -1       458 5.14228E+01 3.47619E+01 0.00000E+00
 -1       459 5.06630E+01 3.72769E+01 0.00000E+00
 -1       460 5.05575E+01 3.90121E+01 0.00000E+00
 -1       461 5.10475E+01 4.11870E+01 0.00000E+00
 -1       462 5.19840E+01 4.29146E+01 0.00000E+00
 -1       463 5.29915E+01 4.43348E+01 0.00000E+00
 -1       464 6.82982E+01 4.41864E+01 0.00000E+00
 -1       465 6.92369E+01 4.26135E+01 0.00000E+00
 -1       466 7.00418E+01 4.09515E+01 0.00000E+00
 -1       467 1.45484E+02 4.34127E+01 0.00000E+00
 -1       468 6.90521E+01 3.15408E+01 0.00000E+00
 -1       469 7.79400E+00 3.08500E+01 0.00000E+00
 -1       470 7.79400E+00 3.38000E+01 0.00000E+00
 -1       471 7.79400E+00 2.49500E+01 0.00000E+00
 -1       472 7.79400E+00 2.20000E+01 0.00000E+00
 -1       473 7.79400E+00 1.91000E+01 0.00000E+00
 -1       474 7.79400E+00 1.61500E+01 0.00000E+00
 -1       475 7.79400E+00 1.32000E+01 0.00000E+00
 -1       476 7.79400E+00 1.02500E+01 0.00000E+00
 -1       477 7.79400E+00 7.30000E+00 0.00000E+00
 -1       478 8.16450E+00 5.65312E+00 0.00000E+00
 -1       479 7.19484E+01 3.69772E+01 0.00000E+00
 -1       480 1.05000E+01 4.22060E+01 0.00000E+00
 -1       481 6.98102E+01 3.30137E+01 0.00000E+00
 -1       482 1.35000E+01 4.22060E+01 0.00000E+00
 -1       483 1.65000E+01 4.22060E+01 0.00000E+00
 -1       484 1.95000E+01 4.22060E+01 0.00000E+00
 -1       485 2.25000E+01 4.22060E+01 0.00000E+00
 -1       486 2.55000E+01 4.22060E+01 0.00000E+00
 -1       487 2.85000E+01 4.22060E+01 0.00000E+00
 -1       488 3.15000E+01 4.22060E+01 0.00000E+00
 -1       489 3.45000E+01 4.22060E+01 0.00000E+00
 -1       490 3.75000E+01 4.22060E+01 0.00000E+00
 -1       491 4.05000E+01 4.22060E+01 0.00000E+00
 -1       492 4.35000E+01 4.22060E+01 0.00000E+00
 -1       493 4.63500E+01 4.22060E+01 0.00000E+00
 -1       494 6.76066E+01 2.95527E+01 0.00000E+00
 -1       495 7.23748E+01 4.06678E+01 0.00000E+00
 -1       496 7.71000E+01 4.35141E+01 0.00000E+00
 -1       497 8.01000E+01 4.35141E+01 0.00000E+00
 -1       498 8.31000E+01 4.35141E+01 0.00000E+00
 -1       499 8.61000E+01 4.35141E+01 0.00000E+00
 -1       500 8.91000E+01 4.35141E+01 0.00000E+00
 -1       501 9.21000E+01 4.35141E+01 0.00000E+00
 -1       502 9.51000E+01 4.35141E+01 0.00000E+00
 -1       503 9.81000E+01 4.35141E+01 0.00000E+00
 -1       504 1.01100E+02 4.35141E+01 0.00000E+00
 -1       505 1.04100E+02 4.35141E+01 0.00000E+00
 -1       506 1.07100E+02 4.35141E+01 0.00000E+00
 -1       507 1.10100E+02 4.35141E+01 0.00000E+00
 -1       508 1.13100E+02 4.35141E+01 0.00000E+00
 -1       509 1.16100E+02 4.35141E+01 0.00000E+00
 -1       510 1.19100E+02 4.35141E+01 0.00000E+00
 -1       511 1.22100E+02 4.35141E+01 0.00000E+00
 -1       512 1.25100E+02 4.35141E+01 0.00000E+00
 -1       513 1.28100E+02 4.35141E+01 0.00000E+00
 -1       514 1.31100E+02 4.35141E+01 0.00000E+00
 -1       515 1.34100E+02 4.35141E+01 0.00000E+00
 -1       516 1.37100E+02 4.35141E+01 0.00000E+00
 -1       517 1.40100E+02 4.35141E+01 0.00000E+00
 -1       518 2.08740E+01 7.38350E+00 0.00000E+00
 -1       519 1.48740E+01 7.38350E+00 0.00000E+00
 -1       520 2.38740E+01 7.38350E+00 0.00000E+00
 -1       521 2.68740E+01 7.38350E+00 0.00000E+00
 -1       522 2.98740E+01 7.38350E+00 0.00000E+00
 -1       523 3.28740E+01 7.38350E+00 0.00000E+00
 -1       524 3.58740E+01 7.38350E+00 0.00000E+00
 -1       525 3.88740E+01 7.38350E+00 0.00000E+00
 -1       526 4.18740E+01 7.38350E+00 0.00000E+00
 -1       527 4.48740E+01 7.38350E+00 0.00000E+00
 -1       528 4.78740E+01 7.38350E+00 0.00000E+00
 -1       529 5.08740E+01 7.38350E+00 0.00000E+00
 -1       530 5.38740E+01 7.38350E+00 0.00000E+00
 -1       531 5.68740E+01 7.38350E+00 0.00000E+00
 -1       532 5.98740E+01 7.38350E+00 0.00000E+00
 -1       533 6.28740E+01 7.38350E+00 0.00000E+00
 -1       534 6.58740E+01 7.38350E+00 0.00000E+00
 -1       535 6.88740E+01 7.38350E+00 0.00000E+00
 -1       536 7.18740E+01 7.38350E+00 0.00000E+00
 -1       537 7.48740E+01 7.38350E+00 0.00000E+00
 -1       538 7.78740E+01 7.38350E+00 0.00000E+00
 -1       539 8.08740E+01 7.38350E+00 0.00000E+00
 -1       540 8.38740E+01 7.38350E+00 0.00000E+00
 -1       541 8.68740E+01 7.38350E+00 0.00000E+00
 -1       542 8.98740E+01 7.38350E+00 0.00000E+00
 -1       543 9.28740E+01 7.38350E+00 0.00000E+00
 -1       544 9.58740E+01 7.38350E+00 0.00000E+00
 -1       545 9.88740E+01 7.38350E+00 0.00000E+00
 -1       546 1.01874E+02 7.38350E+00 0.00000E+00
 -1       547 1.04874E+02 7.38350E+00 0.00000E+00
 -1       548 1.07874E+02 7.38350E+00 0.00000E+00
 -1       549 1.10874E+02 7.38350E+00 0.00000E+00
 -1       550 1.13874E+02 7.38350E+00 0.00000E+00
 -1       551 1.16874E+02 7.38350E+00 0.00000E+00
 -1       552 1.19874E+02 7.38350E+00 0.00000E+00
 -1       553 1.22874E+02 7.38350E+00 0.00000E+00
 -1       554 1.25874E+02 7.38350E+00 0.00000E+00
 -1       555 1.28874E+02 7.38350E+00 0.00000E+00
 -1       556 1.31874E+02 7.38350E+00 0.00000E+00
 -1       557 1.34874E+02 7.38350E+00 0.00000E+00
 -1       558 1.37874E+02 7.38350E+00 0.00000E+00
 -1       559 1.40874E+02 7.38350E+00 0.00000E+00
 -1       560 1.42206E+02 1.61750E+01 0.00000E+00
 -1       561 1.42206E+02 1.32750E+01 0.00000E+00
 -1       562 1.42206E+02 1.03250E+01 0.00000E+00
 -1       563 7.10723E+01 3.50395E+01 0.00000E+00
 -1       564 1.42206E+02 1.91250E+01 0.00000E+00
 -1       565 1.42206E+02 2.20750E+01 0.00000E+00
 -1       566 1.42206E+02 2.50250E+01 0.00000E+00
 -1       567 1.42206E+02 2.79750E+01 0.00000E+00
 -1       568 1.42206E+02 3.08750E+01 0.00000E+00
 -1       569 1.42206E+02 3.38250E+01 0.00000E+00
 -1       570 1.42206E+02 3.67750E+01 0.00000E+00
 -1       571 1.42206E+02 3.97250E+01 0.00000E+00
 -1       572 1.78740E+01 7.38350E+00 0.00000E+00
 -1       573 7.15699E+01 4.23298E+01 0.00000E+00
 -1       574 4.91293E+01 4.04766E+01 0.00000E+00
 -1       575 4.96417E+01 3.55961E+01 0.00000E+00
 -1       576 7.41000E+01 4.35141E+01 0.00000E+00
 -1       577 7.11991E+01 4.38503E+01 0.00000E+00
 -1       578 7.79400E+00 2.79000E+01 0.00000E+00
 -1       579 6.48216E+01 2.81643E+01 0.00000E+00
 -1       580 6.04618E+01 2.72973E+01 0.00000E+00
 -1       581 5.77283E+01 2.76907E+01 0.00000E+00
 -1       582 5.55033E+01 2.85614E+01 0.00000E+00
 -1       583 5.03026E+01 4.27085E+01 0.00000E+00