    1C
    1UUSER                                                              
    1UDATE              27.october.2022                                 
    1UTIME              01:10:40                                        
    1UHOST                                                              
    1UPGM               CalculiX                                        
    1UVERSION           Version 2.17                             
    1UCOMPILETIME       Thu Jul 23 21:43:50 CEST 2020                    
    1UDIR                                                               
    1UDBN                                                               
    1UMAT    1SOLIDMATERIAL                                             
    2C                          4287                                     1
 -1         1 5.69518E+01 2.00282E+01 0.00000E+00
 -1         2 6.55933E+01 1.32233E+01 0.00000E+00
 -1         3 1.50000E+02 0.00000E+00 0.00000E+00
 -1         4 1.50000E+02 5.00000E+01 0.00000E+00
 -1         5 0.00000E+00 0.00000E+00 0.00000E+00
 -1         6 0.00000E+00 5.00000E+01 0.00000E+00
 -1         7 0.00000E+00 4.70500E+01 0.00000E+00
 -1         8 0.00000E+00 4.41000E+01 0.00000E+00
 -1         9 0.00000E+00 4.11500E+01 0.00000E+00
 -1        10 0.00000E+00 3.82000E+01 0.00000E+00
 -1        11 0.00000E+00 3.52500E+01 0.00000E+00
 -1        12 0.00000E+00 3.23500E+01 0.00000E+00
 -1        13 0.00000E+00 2.94000E+01 0.00000E+00
 -1        14 0.00000E+00 2.64500E+01 0.00000E+00
 -1        15 0.00000E+00 2.35000E+01 0.00000E+00
 -1        16 0.00000E+00 2.05500E+01 0.00000E+00
 -1        17 0.00000E+00 1.76000E+01 0.00000E+00
 -1        18 0.00000E+00 1.47000E+01 0.00000E+00
 -1        19 0.00000E+00 1.17500E+01 0.00000E+00
 -1        20 0.00000E+00 8.80000E+00 0.00000E+00
 -1        21 0.00000E+00 5.85000E+00 0.00000E+00
 -1        22 0.00000E+00 2.90000E+00 0.00000E+00
 -1        23 3.15000E+00 5.00000E+01 0.00000E+00
 -1        24 6.15000E+00 5.00000E+01 0.00000E+00
 -1        25 9.15000E+00 5.00000E+01 0.00000E+00
 -1        26 1.21500E+01 5.00000E+01 0.00000E+00
 -1        27 1.51500E+01 5.00000E+01 0.00000E+00
 -1        28 1.81500E+01 5.00000E+01 0.00000E+00
 -1        29 2.11500E+01 5.00000E+01 0.00000E+00
 -1        30 2.41500E+01 5.00000E+01 0.00000E+00
 -1        31 2.71500E+01 5.00000E+01 0.00000E+00
 -1        32 3.01500E+01 5.00000E+01 0.00000E+00
 -1        33 3.31500E+01 5.00000E+01 0.00000E+00
 -1        34 3.61500E+01 5.00000E+01 0.00000E+00
 -1        35 3.91500E+01 5.00000E+01 0.00000E+00
 -1        36 4.21500E+01 5.00000E+01 0.00000E+00
 -1        37 4.51500E+01 5.00000E+01 0.00000E+00
 -1        38 4.81500E+01 5.00000E+01 0.00000E+00
 -1        39 5.11500E+01 5.00000E+01 0.00000E+00
 -1        40 5.41500E+01 5.00000E+01 0.00000E+00
 -1        41 5.71500E+01 5.00000E+01 0.00000E+00
 -1        42 6.01500E+01 5.00000E+01 0.00000E+00
 -1        43 6.31500E+01 5.00000E+01 0.00000E+00
 -1        44 6.61500E+01 5.00000E+01 0.00000E+00
 -1        45 6.91500E+01 5.00000E+01 0.00000E+00
 -1        46 7.21500E+01 5.00000E+01 0.00000E+00
 -1        47 7.51500E+01 5.00000E+01 0.00000E+00
 -1        48 7.81500E+01 5.00000E+01 0.00000E+00
 -1        49 8.11500E+01 5.00000E+01 0.00000E+00
 -1        50 8.41500E+01 5.00000E+01 0.00000E+00
 -1        51 8.71500E+01 5.00000E+01 0.00000E+00
 -1        52 9.01500E+01 5.00000E+01 0.00000E+00
 -1        53 9.31500E+01 5.00000E+01 0.00000E+00
 -1        54 9.61500E+01 5.00000E+01 0.00000E+00
 -1        55 9.91500E+01 5.00000E+01 0.00000E+00
 -1        56 1.02150E+02 5.00000E+01 0.00000E+00
 -1        57 1.05150E+02 5.00000E+01 0.00000E+00
 -1        58 1.08150E+02 5.00000E+01 0.00000E+00
 -1        59 1.11150E+02 5.00000E+01 0.00000E+00
 -1        60 1.14150E+02 5.00000E+01 0.00000E+00
 -1        61 1.17150E+02 5.00000E+01 0.00000E+00
 -1        62 1.20150E+02 5.00000E+01 0.00000E+00
 -1        63 1.23150E+02 5.00000E+01 0.00000E+00
 -1        64 1.26150E+02 5.00000E+01 0.00000E+00
 -1        65 1.29150E+02 5.00000E+01 0.00000E+00
 -1        66 1.32150E+02 5.00000E+01 0.00000E+00
 -1        67 1.35150E+02 5.00000E+01 0.00000E+00
 -1        68 1.38150E+02 5.00000E+01 0.00000E+00
 -1        69 1.41150E+02 5.00000E+01 0.00000E+00
 -1        70 1.44150E+02 5.00000E+01 0.00000E+00
 -1        71 1.47150E+02 5.00000E+01 0.00000E+00
 -1        72 3.15000E+00 0.00000E+00 0.00000E+00
 -1        73 6.15000E+00 0.00000E+00 0.00000E+00
 -1        74 9.15000E+00 0.00000E+00 0.00000E+00
 -1        75 1.21500E+01 0.00000E+00 0.00000E+00
 -1        76 1.51500E+01 0.00000E+00 0.00000E+00
 -1        77 1.81500E+01 0.00000E+00 0.00000E+00
 -1        78 2.11500E+01 0.00000E+00 0.00000E+00
 -1        79 2.41500E+01 0.00000E+00 0.00000E+00
 -1        80 2.71500E+01 0.00000E+00 0.00000E+00
 -1        81 3.01500E+01 0.00000E+00 0.00000E+00
 -1        82 3.31500E+01 0.00000E+00 0.00000E+00
 -1        83 3.61500E+01 0.00000E+00 0.00000E+00
 -1        84 3.91500E+01 0.00000E+00 0.00000E+00
 -1        85 4.21500E+01 0.00000E+00 0.00000E+00
 -1        86 4.53000E+01 0.00000E+00 0.00000E+00
 -1        87 4.83000E+01 0.00000E+00 0.00000E+00
 -1        88 5.13000E+01 0.00000E+00 0.00000E+00
 -1        89 5.38500E+01 0.00000E+00 0.00000E+00
 -1        90 5.64000E+01 0.00000E+00 0.00000E+00
 -1        91 5.86500E+01 0.00000E+00 0.00000E+00
 -1        92 6.10500E+01 0.00000E+00 0.00000E+00
 -1        93 6.33000E+01 0.00000E+00 0.00000E+00
 -1        94 6.60000E+01 0.00000E+00 0.00000E+00
 -1        95 6.88500E+01 0.00000E+00 0.00000E+00
 -1        96 7.18500E+01 0.00000E+00 0.00000E+00
 -1        97 7.48500E+01 0.00000E+00 0.00000E+00
 -1        98 7.78500E+01 0.00000E+00 0.00000E+00
 -1        99 8.08500E+01 0.00000E+00 0.00000E+00
 -1       100 8.38500E+01 0.00000E+00 0.00000E+00
 -1       101 8.68500E+01 0.00000E+00 0.00000E+00
 -1       102 8.98500E+01 0.00000E+00 0.00000E+00
 -1       103 9.28500E+01 0.00000E+00 0.00000E+00
 -1       104 9.58500E+01 0.00000E+00 0.00000E+00
 -1       105 9.88500E+01 0.00000E+00 0.00000E+00
 -1       106 1.01850E+02 0.00000E+00 0.00000E+00
 -1       107 1.04850E+02 0.00000E+00 0.00000E+00
 -1       108 1.08000E+02 0.00000E+00 0.00000E+00
 -1       109 1.11000E+02 0.00000E+00 0.00000E+00
 -1       110 1.14000E+02 0.00000E+00 0.00000E+00
 -1       111 1.17000E+02 0.00000E+00 0.00000E+00
 -1       112 1.20000E+02 0.00000E+00 0.00000E+00
 -1       113 1.23000E+02 0.00000E+00 0.00000E+00
 -1       114 1.26000E+02 0.00000E+00 0.00000E+00
 -1       115 1.29000E+02 0.00000E+00 0.00000E+00
 -1       116 1.32000E+02 0.00000E+00 0.00000E+00
 -1       117 1.35000E+02 0.00000E+00 0.00000E+00
 -1       118 1.38000E+02 0.00000E+00 0.00000E+00
 -1       119 1.41000E+02 0.00000E+00 0.00000E+00
 -1       120 1.44000E+02 0.00000E+00 0.00000E+00
 -1       121 1.47000E+02 0.00000E+00 0.00000E+00
 -1       122 1.50000E+02 2.95000E+00 0.00000E+00
 -1       123 1.50000E+02 5.90000E+00 0.00000E+00
 -1       124 1.50000E+02 8.85000E+00 0.00000E+00
 -1       125 1.50000E+02 1.18000E+01 0.00000E+00
 -1       126 1.50000E+02 1.47500E+01 0.00000E+00
 -1       127 1.50000E+02 1.76500E+01 0.00000E+00
 -1       128 1.50000E+02 2.06000E+01 0.00000E+00
 -1       129 1.50000E+02 2.35500E+01 0.00000E+00
 -1       130 1.50000E+02 2.65000E+01 0.00000E+00
 -1       131 1.50000E+02 2.94500E+01 0.00000E+00
 -1       132 1.50000E+02 3.24000E+01 0.00000E+00
 -1       133 1.50000E+02 3.53000E+01 0.00000E+00
 -1       134 1.50000E+02 3.82500E+01 0.00000E+00
 -1       135 1.50000E+02 4.12000E+01 0.00000E+00
 -1       136 1.50000E+02 4.41500E+01 0.00000E+00
 -1       137 1.50000E+02 4.71000E+01 0.00000E+00
 -1       138 6.54496E+01 1.18126E+01 0.00000E+00
 -1       139 6.49431E+01 1.02772E+01 0.00000E+00
 -1       140 6.41589E+01 8.97794E+00 0.00000E+00
 -1       141 6.31582E+01 7.91664E+00 0.00000E+00
 -1       142 6.18923E+01 7.04948E+00 0.00000E+00
 -1       143 6.05674E+01 6.50750E+00 0.00000E+00
 -1       144 5.91246E+01 6.24354E+00 0.00000E+00
 -1       145 5.75234E+01 6.30558E+00 0.00000E+00
 -1       146 5.61257E+01 6.67268E+00 0.00000E+00
 -1       147 5.47862E+01 7.34914E+00 0.00000E+00
 -1       148 5.36720E+01 8.24527E+00 0.00000E+00
 -1       149 5.27802E+01 9.32359E+00 0.00000E+00
 -1       150 5.20636E+01 1.07008E+01 0.00000E+00
 -1       151 5.16857E+01 1.20895E+01 0.00000E+00
 -1       152 5.15988E+01 1.35027E+01 0.00000E+00
 -1       153 5.18341E+01 1.50437E+01 0.00000E+00
 -1       154 5.23726E+01 1.64333E+01 0.00000E+00
 -1       155 5.31636E+01 1.76414E+01 0.00000E+00
 -1       156 5.42604E+01 1.87212E+01 0.00000E+00
 -1       157 5.55206E+01 1.95129E+01 0.00000E+00
 -1       158 5.83027E+01 2.02173E+01 0.00000E+00
 -1       159 5.97773E+01 2.01225E+01 0.00000E+00
 -1       160 6.11027E+01 1.97581E+01 0.00000E+00
 -1       161 6.23373E+01 1.91379E+01 0.00000E+00
 -1       162 6.34876E+01 1.82279E+01 0.00000E+00
 -1       163 6.43635E+01 1.71862E+01 0.00000E+00
 -1       164 6.50203E+01 1.59970E+01 0.00000E+00
 -1       165 6.54404E+01 1.46781E+01 0.00000E+00
 -1       166 2.59800E+00 4.55750E+01 0.00000E+00
 -1       167 2.59800E+00 4.26250E+01 0.00000E+00
 -1       168 2.59800E+00 3.96750E+01 0.00000E+00
 -1       169 2.59800E+00 3.67250E+01 0.00000E+00
 -1       170 2.59800E+00 3.38250E+01 0.00000E+00
 -1       171 2.59800E+00 3.08750E+01 0.00000E+00
 -1       172 2.59800E+00 2.79250E+01 0.00000E+00
 -1       173 2.59800E+00 2.49750E+01 0.00000E+00
 -1       174 2.59800E+00 2.20250E+01 0.00000E+00
 -1       175 2.59800E+00 1.90750E+01 0.00000E+00
 -1       176 2.59800E+00 1.61750E+01 0.00000E+00
 -1       177 2.59800E+00 1.32250E+01 0.00000E+00
 -1       178 2.59800E+00 1.02750E+01 0.00000E+00
 -1       179 2.59800E+00 7.32500E+00 0.00000E+00
 -1       180 2.59800E+00 4.37500E+00 0.00000E+00
 -1       181 2.87400E+00 2.18750E+00 0.00000E+00
 -1       182 4.65000E+00 4.74020E+01 0.00000E+00
 -1       183 7.65000E+00 4.74020E+01 0.00000E+00
 -1       184 1.06500E+01 4.74020E+01 0.00000E+00
 -1       185 1.36500E+01 4.74020E+01 0.00000E+00
 -1       186 1.66500E+01 4.74020E+01 0.00000E+00
 -1       187 1.96500E+01 4.74020E+01 0.00000E+00
 -1       188 2.26500E+01 4.74020E+01 0.00000E+00
 -1       189 2.56500E+01 4.74020E+01 0.00000E+00
 -1       190 2.86500E+01 4.74020E+01 0.00000E+00
 -1       191 3.16500E+01 4.74020E+01 0.00000E+00
 -1       192 3.46500E+01 4.74020E+01 0.00000E+00
 -1       193 3.76500E+01 4.74020E+01 0.00000E+00
 -1       194 4.06500E+01 4.74020E+01 0.00000E+00
 -1       195 4.36500E+01 4.74020E+01 0.00000E+00
 -1       196 4.66500E+01 4.74020E+01 0.00000E+00
 -1       197 4.96500E+01 4.74020E+01 0.00000E+00
 -1       198 5.26500E+01 4.74020E+01 0.00000E+00
 -1       199 5.56500E+01 4.74020E+01 0.00000E+00
 -1       200 5.86500E+01 4.74020E+01 0.00000E+00
 -1       201 6.16500E+01 4.74020E+01 0.00000E+00
 -1       202 6.46500E+01 4.74020E+01 0.00000E+00
 -1       203 6.76500E+01 4.74020E+01 0.00000E+00
 -1       204 7.06500E+01 4.74020E+01 0.00000E+00
 -1       205 7.36500E+01 4.74020E+01 0.00000E+00
 -1       206 7.66500E+01 4.74020E+01 0.00000E+00
 -1       207 7.96500E+01 4.74020E+01 0.00000E+00
 -1       208 8.26500E+01 4.74020E+01 0.00000E+00
 -1       209 8.56500E+01 4.74020E+01 0.00000E+00
 -1       210 8.86500E+01 4.74020E+01 0.00000E+00
 -1       211 9.16500E+01 4.74020E+01 0.00000E+00
 -1       212 9.46500E+01 4.74020E+01 0.00000E+00
 -1       213 9.76500E+01 4.74020E+01 0.00000E+00
 -1       214 1.00650E+02 4.74020E+01 0.00000E+00
 -1       215 1.03650E+02 4.74020E+01 0.00000E+00
 -1       216 1.06650E+02 4.74020E+01 0.00000E+00
 -1       217 1.09650E+02 4.74020E+01 0.00000E+00
 -1       218 1.12650E+02 4.74020E+01 0.00000E+00
 -1       219 1.15650E+02 4.74020E+01 0.00000E+00
 -1       220 1.18650E+02 4.74020E+01 0.00000E+00
 -1       221 1.21650E+02 4.74020E+01 0.00000E+00
 -1       222 1.24650E+02 4.74020E+01 0.00000E+00
 -1       223 1.27650E+02 4.74020E+01 0.00000E+00
 -1       224 1.30650E+02 4.74020E+01 0.00000E+00
 -1       225 1.33650E+02 4.74020E+01 0.00000E+00
 -1       226 1.36650E+02 4.74020E+01 0.00000E+00
 -1       227 1.39650E+02 4.74020E+01 0.00000E+00
 -1       228 1.42650E+02 4.74020E+01 0.00000E+00
 -1       229 1.45650E+02 4.74020E+01 0.00000E+00
 -1       230 5.87400E+00 2.18750E+00 0.00000E+00
 -1       231 8.87400E+00 2.18750E+00 0.00000E+00
 -1       232 1.18740E+01 2.18750E+00 0.00000E+00
 -1       233 1.48740E+01 2.18750E+00 0.00000E+00
 -1       234 1.78740E+01 2.18750E+00 0.00000E+00
 -1       235 2.08740E+01 2.18750E+00 0.00000E+00
 -1       236 2.38740E+01 2.18750E+00 0.00000E+00
 -1       237 2.68740E+01 2.18750E+00 0.00000E+00
 -1       238 2.98740E+01 2.18750E+00 0.00000E+00
 -1       239 3.28740E+01 2.18750E+00 0.00000E+00
 -1       240 3.58740E+01 2.18750E+00 0.00000E+00
 -1       241 3.88740E+01 2.18750E+00 0.00000E+00
 -1       242 4.18740E+01 2.18750E+00 0.00000E+00
 -1       243 4.50240E+01 2.18750E+00 0.00000E+00
 -1       244 4.80240E+01 2.18750E+00 0.00000E+00
 -1       245 5.10240E+01 2.18750E+00 0.00000E+00
 -1       246 5.35740E+01 2.18750E+00 0.00000E+00
 -1       247 5.61240E+01 2.18750E+00 0.00000E+00
 -1       248 5.83740E+01 2.18750E+00 0.00000E+00
 -1       249 6.07740E+01 2.18750E+00 0.00000E+00
 -1       250 6.30240E+01 2.18750E+00 0.00000E+00
 -1       251 6.57240E+01 2.18750E+00 0.00000E+00
 -1       252 6.85740E+01 2.18750E+00 0.00000E+00
 -1       253 7.15740E+01 2.18750E+00 0.00000E+00
 -1       254 7.45740E+01 2.18750E+00 0.00000E+00
 -1       255 7.75740E+01 2.18750E+00 0.00000E+00
 -1       256 8.05740E+01 2.18750E+00 0.00000E+00
 -1       257 8.35740E+01 2.18750E+00 0.00000E+00
 -1       258 8.65740E+01 2.18750E+00 0.00000E+00
 -1       259 8.95740E+01 2.18750E+00 0.00000E+00
 -1       260 9.25740E+01 2.18750E+00 0.00000E+00
 -1       261 9.55740E+01 2.18750E+00 0.00000E+00
 -1       262 9.85740E+01 2.18750E+00 0.00000E+00
 -1       263 1.01574E+02 2.18750E+00 0.00000E+00
 -1       264 1.04574E+02 2.18750E+00 0.00000E+00
 -1       265 1.07724E+02 2.18750E+00 0.00000E+00
 -1       266 1.10724E+02 2.18750E+00 0.00000E+00
 -1       267 1.13724E+02 2.18750E+00 0.00000E+00
 -1       268 1.16724E+02 2.18750E+00 0.00000E+00
 -1       269 1.19724E+02 2.18750E+00 0.00000E+00
 -1       270 1.22724E+02 2.18750E+00 0.00000E+00
 -1       271 1.25724E+02 2.18750E+00 0.00000E+00
 -1       272 1.28724E+02 2.18750E+00 0.00000E+00
 -1       273 1.31724E+02 2.18750E+00 0.00000E+00
 -1       274 1.34724E+02 2.18750E+00 0.00000E+00
 -1       275 1.37724E+02 2.18750E+00 0.00000E+00
 -1       276 1.40724E+02 2.18750E+00 0.00000E+00
 -1       277 1.43724E+02 2.18750E+00 0.00000E+00
 -1       278 1.46724E+02 2.18750E+00 0.00000E+00
 -1       279 1.47402E+02 4.42500E+00 0.00000E+00
 -1       280 1.47402E+02 7.37500E+00 0.00000E+00
 -1       281 1.47402E+02 1.03250E+01 0.00000E+00
 -1       282 1.47402E+02 1.32750E+01 0.00000E+00
 -1       283 1.47402E+02 1.61750E+01 0.00000E+00
 -1       284 1.47402E+02 1.91250E+01 0.00000E+00
 -1       285 1.47402E+02 2.20750E+01 0.00000E+00
 -1       286 1.47402E+02 2.50250E+01 0.00000E+00
 -1       287 1.47402E+02 2.79750E+01 0.00000E+00
 -1       288 1.47402E+02 3.09250E+01 0.00000E+00
 -1       289 1.47402E+02 3.38250E+01 0.00000E+00
 -1       290 1.47402E+02 3.67750E+01 0.00000E+00
 -1       291 1.47402E+02 3.97250E+01 0.00000E+00
 -1       292 1.47402E+02 4.26750E+01 0.00000E+00
 -1       293 1.46526E+02 4.50385E+01 0.00000E+00
 -1       294 6.67276E+01 1.23952E+01 0.00000E+00
 -1       295 6.66660E+01 1.05600E+01 0.00000E+00
 -1       296 6.57325E+01 8.91450E+00 0.00000E+00
 -1       297 6.45407E+01 7.61555E+00 0.00000E+00
 -1       298 6.33051E+01 6.34457E+00 0.00000E+00
 -1       299 6.16889E+01 5.65636E+00 0.00000E+00
 -1       300 6.00793E+01 5.10049E+00 0.00000E+00
 -1       301 5.82706E+01 4.89563E+00 0.00000E+00
 -1       302 5.65166E+01 5.31650E+00 0.00000E+00
 -1       303 5.48339E+01 5.77910E+00 0.00000E+00
 -1       304 5.34693E+01 6.85246E+00 0.00000E+00
 -1       305 5.22918E+01 8.01174E+00 0.00000E+00
 -1       306 5.12720E+01 9.41391E+00 0.00000E+00
 -1       307 5.07048E+01 1.10768E+01 0.00000E+00
 -1       308 5.04321E+01 1.27217E+01 0.00000E+00
 -1       309 5.02695E+01 1.44941E+01 0.00000E+00
 -1       310 5.08948E+01 1.62069E+01 0.00000E+00
 -1       311 5.17538E+01 1.77015E+01 0.00000E+00
 -1       312 5.27438E+01 1.91646E+01 0.00000E+00
 -1       313 5.42010E+01 2.02146E+01 0.00000E+00
 -1       314 5.57688E+01 2.10689E+01 0.00000E+00
 -1       315 5.74591E+01 2.13234E+01 0.00000E+00
 -1       316 5.91232E+01 2.14634E+01 0.00000E+00
 -1       317 6.07614E+01 2.11093E+01 0.00000E+00
 -1       318 6.22642E+01 2.05314E+01 0.00000E+00
 -1       319 6.37687E+01 1.97651E+01 0.00000E+00
 -1       320 6.48535E+01 1.84873E+01 0.00000E+00
 -1       321 6.57532E+01 1.71778E+01 0.00000E+00
 -1       322 6.64654E+01 1.57309E+01 0.00000E+00
 -1       323 6.68893E+01 1.40949E+01 0.00000E+00
 -1       324 5.19600E+00 4.11500E+01 0.00000E+00
 -1       325 5.19600E+00 4.41000E+01 0.00000E+00
 -1       326 5.19600E+00 3.52750E+01 0.00000E+00
 -1       327 5.19600E+00 3.23250E+01 0.00000E+00
 -1       328 5.19600E+00 2.93750E+01 0.00000E+00
 -1       329 5.19600E+00 2.64250E+01 0.00000E+00
 -1       330 5.19600E+00 2.34750E+01 0.00000E+00
 -1       331 5.19600E+00 2.05250E+01 0.00000E+00
 -1       332 5.19600E+00 1.76250E+01 0.00000E+00
 -1       333 5.19600E+00 1.46750E+01 0.00000E+00
 -1       334 5.19600E+00 1.17250E+01 0.00000E+00
 -1       335 5.19600E+00 8.77500E+00 0.00000E+00
 -1       336 5.19600E+00 5.82500E+00 0.00000E+00
 -1       337 5.53500E+00 4.00625E+00 0.00000E+00
 -1       338 8.53500E+00 4.00625E+00 0.00000E+00
 -1       339 9.15000E+00 4.48040E+01 0.00000E+00
 -1       340 1.21500E+01 4.48040E+01 0.00000E+00
 -1       341 1.51500E+01 4.48040E+01 0.00000E+00
 -1       342 1.81500E+01 4.48040E+01 0.00000E+00
 -1       343 2.11500E+01 4.48040E+01 0.00000E+00
 -1       344 2.41500E+01 4.48040E+01 0.00000E+00
 -1       345 2.71500E+01 4.48040E+01 0.00000E+00
 -1       346 3.01500E+01 4.48040E+01 0.00000E+00
 -1       347 3.31500E+01 4.48040E+01 0.00000E+00
 -1       348 3.61500E+01 4.48040E+01 0.00000E+00
 -1       349 3.91500E+01 4.48040E+01 0.00000E+00
 -1       350 4.21500E+01 4.48040E+01 0.00000E+00
 -1       351 4.51500E+01 4.48040E+01 0.00000E+00
 -1       352 4.81500E+01 4.48040E+01 0.00000E+00
 -1       353 5.11500E+01 4.48040E+01 0.00000E+00
 -1       354 5.41500E+01 4.48040E+01 0.00000E+00
 -1       355 5.71500E+01 4.48040E+01 0.00000E+00
 -1       356 6.01500E+01 4.48040E+01 0.00000E+00
 -1       357 6.31500E+01 4.48040E+01 0.00000E+00
 -1       358 6.61500E+01 4.48040E+01 0.00000E+00
 -1       359 6.91500E+01 4.48040E+01 0.00000E+00
 -1       360 7.21500E+01 4.48040E+01 0.00000E+00
 -1       361 7.51500E+01 4.48040E+01 0.00000E+00
 -1       362 7.81500E+01 4.48040E+01 0.00000E+00
 -1       363 8.11500E+01 4.48040E+01 0.00000E+00
 -1       364 8.41500E+01 4.48040E+01 0.00000E+00
 -1       365 8.71500E+01 4.48040E+01 0.00000E+00
 -1       366 9.01500E+01 4.48040E+01 0.00000E+00
 -1       367 9.31500E+01 4.48040E+01 0.00000E+00
 -1       368 9.61500E+01 4.48040E+01 0.00000E+00
 -1       369 9.91500E+01 4.48040E+01 0.00000E+00
 -1       370 1.02150E+02 4.48040E+01 0.00000E+00
 -1       371 1.05150E+02 4.48040E+01 0.00000E+00
 -1       372 1.08150E+02 4.48040E+01 0.00000E+00
 -1       373 1.11150E+02 4.48040E+01 0.00000E+00
 -1       374 1.14150E+02 4.48040E+01 0.00000E+00
 -1       375 1.17150E+02 4.48040E+01 0.00000E+00
 -1       376 1.20150E+02 4.48040E+01 0.00000E+00
 -1       377 1.23150E+02 4.48040E+01 0.00000E+00
 -1       378 1.26150E+02 4.48040E+01 0.00000E+00
 -1       379 1.29150E+02 4.48040E+01 0.00000E+00
 -1       380 1.32150E+02 4.48040E+01 0.00000E+00
 -1       381 1.35150E+02 4.48040E+01 0.00000E+00
 -1       382 1.38150E+02 4.48040E+01 0.00000E+00
 -1       383 1.41150E+02 4.48040E+01 0.00000E+00
 -1       384 1.43838E+02 4.49212E+01 0.00000E+00
 -1       385 1.15350E+01 4.00625E+00 0.00000E+00
 -1       386 1.45350E+01 4.00625E+00 0.00000E+00
 -1       387 1.75350E+01 4.00625E+00 0.00000E+00
 -1       388 2.05350E+01 4.00625E+00 0.00000E+00
 -1       389 2.35350E+01 4.00625E+00 0.00000E+00
 -1       390 2.65350E+01 4.00625E+00 0.00000E+00
 -1       391 2.95350E+01 4.00625E+00 0.00000E+00
 -1       392 3.25350E+01 4.00625E+00 0.00000E+00
 -1       393 3.55350E+01 4.00625E+00 0.00000E+00
 -1       394 3.85350E+01 4.00625E+00 0.00000E+00
 -1       395 4.15350E+01 4.00625E+00 0.00000E+00
 -1       396 4.46850E+01 4.00625E+00 0.00000E+00
 -1       397 4.76850E+01 4.00625E+00 0.00000E+00
 -1       398 5.06850E+01 4.00625E+00 0.00000E+00
 -1       399 5.48490E+01 4.07018E+00 0.00000E+00
 -1       400 6.18990E+01 3.90261E+00 0.00000E+00
 -1       401 6.43740E+01 4.07018E+00 0.00000E+00
 -1       402 6.71490E+01 4.57289E+00 0.00000E+00
 -1       403 7.01490E+01 4.57289E+00 0.00000E+00
 -1       404 7.31490E+01 4.57289E+00 0.00000E+00
 -1       405 7.61490E+01 4.57289E+00 0.00000E+00
 -1       406 7.91490E+01 4.57289E+00 0.00000E+00
 -1       407 8.21490E+01 4.57289E+00 0.00000E+00
 -1       408 8.51490E+01 4.57289E+00 0.00000E+00
 -1       409 8.81490E+01 4.57289E+00 0.00000E+00
 -1       410 9.11490E+01 4.57289E+00 0.00000E+00
 -1       411 9.41490E+01 4.57289E+00 0.00000E+00
 -1       412 9.71490E+01 4.57289E+00 0.00000E+00
 -1       413 1.00149E+02 4.57289E+00 0.00000E+00
 -1       414 1.03149E+02 4.57289E+00 0.00000E+00
 -1       415 1.06299E+02 4.57289E+00 0.00000E+00
 -1       416 1.09299E+02 4.57289E+00 0.00000E+00
 -1       417 1.12299E+02 4.57289E+00 0.00000E+00
 -1       418 1.15299E+02 4.57289E+00 0.00000E+00
 -1       419 1.18299E+02 4.57289E+00 0.00000E+00
 -1       420 1.21299E+02 4.57289E+00 0.00000E+00
 -1       421 1.24299E+02 4.57289E+00 0.00000E+00
 -1       422 1.27299E+02 4.57289E+00 0.00000E+00
 -1       423 1.30299E+02 4.57289E+00 0.00000E+00
 -1       424 1.33299E+02 4.57289E+00 0.00000E+00
 -1       425 1.36299E+02 4.57289E+00 0.00000E+00
 -1       426 1.39299E+02 4.57289E+00 0.00000E+00
 -1       427 1.42299E+02 4.57289E+00 0.00000E+00
 -1       428 1.44850E+02 4.49894E+00 0.00000E+00
 -1       429 1.44804E+02 1.18000E+01 0.00000E+00
 -1       430 1.44804E+02 8.85000E+00 0.00000E+00
 -1       431 1.44804E+02 1.47000E+01 0.00000E+00
 -1       432 1.44804E+02 1.76500E+01 0.00000E+00
 -1       433 1.44804E+02 2.06000E+01 0.00000E+00
 -1       434 1.44804E+02 2.35500E+01 0.00000E+00
 -1       435 1.44804E+02 2.65000E+01 0.00000E+00
 -1       436 1.44804E+02 2.94500E+01 0.00000E+00
 -1       437 1.44804E+02 3.23500E+01 0.00000E+00
 -1       438 1.44804E+02 3.53000E+01 0.00000E+00
 -1       439 1.44804E+02 3.82500E+01 0.00000E+00
 -1       440 1.44804E+02 4.12000E+01 0.00000E+00
 -1       441 6.75452E+01 8.97367E+00 0.00000E+00
 -1       442 6.80988E+01 1.31223E+01 0.00000E+00
 -1       443 6.80372E+01 1.12872E+01 0.00000E+00
 -1       444 6.64004E+01 7.10552E+00 0.00000E+00
 -1       445 6.51647E+01 5.83454E+00 0.00000E+00
 -1       446 5.19600E+00 3.82125E+01 0.00000E+00
 -1       447 5.93302E+01 3.62686E+00 0.00000E+00
 -1       448 5.70325E+01 3.60124E+00 0.00000E+00
 -1       449 5.34844E+01 5.14354E+00 0.00000E+00
 -1       450 5.17360E+01 6.26965E+00 0.00000E+00
 -1       451 5.05981E+01 7.85187E+00 0.00000E+00
 -1       452 4.96823E+01 9.79983E+00 0.00000E+00
 -1       453 4.90417E+01 1.16463E+01 0.00000E+00
 -1       454 4.88791E+01 1.34187E+01 0.00000E+00
 -1       455 4.93645E+01 1.57950E+01 0.00000E+00
 -1       456 5.00552E+01 1.76836E+01 0.00000E+00
 -1       457 5.11059E+01 1.92064E+01 0.00000E+00
 -1       458 5.25677E+01 2.09452E+01 0.00000E+00
 -1       459 5.43646E+01 2.17799E+01 0.00000E+00
 -1       460 5.63835E+01 2.27265E+01 0.00000E+00
 -1       461 5.80476E+01 2.28665E+01 0.00000E+00
 -1       462 6.03047E+01 2.29627E+01 0.00000E+00
 -1       463 6.19781E+01 2.20302E+01 0.00000E+00
 -1       464 6.36047E+01 2.13033E+01 0.00000E+00
 -1       465 6.53631E+01 2.00193E+01 0.00000E+00
 -1       466 6.64408E+01 1.86140E+01 0.00000E+00
 -1       467 6.74977E+01 1.71378E+01 0.00000E+00
 -1       468 6.80132E+01 1.52590E+01 0.00000E+00
 -1       469 6.35319E+01 4.86858E+00 0.00000E+00
 -1       470 5.22990E+01 4.23775E+00 0.00000E+00
 -1       471 4.79741E+01 1.47196E+01 0.00000E+00
 -1       472 1.00350E+01 6.60425E+00 0.00000E+00
 -1       473 7.79400E+00 3.08500E+01 0.00000E+00
 -1       474 7.79400E+00 3.38000E+01 0.00000E+00
 -1       475 7.79400E+00 2.49500E+01 0.00000E+00
 -1       476 7.79400E+00 2.20000E+01 0.00000E+00
 -1       477 7.79400E+00 1.91000E+01 0.00000E+00
 -1       478 7.79400E+00 1.61500E+01 0.00000E+00
 -1       479 7.79400E+00 1.32000E+01 0.00000E+00
 -1       480 7.79400E+00 1.02500E+01 0.00000E+00
 -1       481 7.16490E+01 7.12584E+00 0.00000E+00
 -1       482 1.30350E+01 6.60425E+00 0.00000E+00
 -1       483 1.06500E+01 4.22060E+01 0.00000E+00
 -1       484 7.92300E+00 4.16780E+01 0.00000E+00
 -1       485 1.36500E+01 4.22060E+01 0.00000E+00
 -1       486 1.66500E+01 4.22060E+01 0.00000E+00
 -1       487 1.96500E+01 4.22060E+01 0.00000E+00
 -1       488 2.26500E+01 4.22060E+01 0.00000E+00
 -1       489 2.56500E+01 4.22060E+01 0.00000E+00
 -1       490 2.86500E+01 4.22060E+01 0.00000E+00
 -1       491 3.16500E+01 4.22060E+01 0.00000E+00
 -1       492 3.46500E+01 4.22060E+01 0.00000E+00
 -1       493 3.76500E+01 4.22060E+01 0.00000E+00
 -1       494 4.06500E+01 4.22060E+01 0.00000E+00
 -1       495 4.36500E+01 4.22060E+01 0.00000E+00
 -1       496 4.66500E+01 4.22060E+01 0.00000E+00
 -1       497 4.96500E+01 4.22060E+01 0.00000E+00
 -1       498 5.26500E+01 4.22060E+01 0.00000E+00
 -1       499 5.56500E+01 4.22060E+01 0.00000E+00
 -1       500 5.86500E+01 4.22060E+01 0.00000E+00
 -1       501 6.16500E+01 4.22060E+01 0.00000E+00
 -1       502 6.46500E+01 4.22060E+01 0.00000E+00
 -1       503 6.76500E+01 4.22060E+01 0.00000E+00
 -1       504 7.06500E+01 4.22060E+01 0.00000E+00
 -1       505 7.36500E+01 4.22060E+01 0.00000E+00
 -1       506 7.66500E+01 4.22060E+01 0.00000E+00
 -1       507 7.96500E+01 4.22060E+01 0.00000E+00
 -1       508 8.26500E+01 4.22060E+01 0.00000E+00
 -1       509 8.56500E+01 4.22060E+01 0.00000E+00
 -1       510 8.86500E+01 4.22060E+01 0.00000E+00
 -1       511 9.16500E+01 4.22060E+01 0.00000E+00
 -1       512 9.46500E+01 4.22060E+01 0.00000E+00
 -1       513 9.76500E+01 4.22060E+01 0.00000E+00
 -1       514 1.00650E+02 4.22060E+01 0.00000E+00
 -1       515 1.03650E+02 4.22060E+01 0.00000E+00
 -1       516 1.06650E+02 4.22060E+01 0.00000E+00
 -1       517 1.09650E+02 4.22060E+01 0.00000E+00
 -1       518 1.12650E+02 4.22060E+01 0.00000E+00
 -1       519 1.15650E+02 4.22060E+01 0.00000E+00
 -1       520 1.18650E+02 4.22060E+01 0.00000E+00
 -1       521 1.21650E+02 4.22060E+01 0.00000E+00
 -1       522 1.24650E+02 4.22060E+01 0.00000E+00
 -1       523 1.27650E+02 4.22060E+01 0.00000E+00
 -1       524 1.30650E+02 4.22060E+01 0.00000E+00
 -1       525 1.33650E+02 4.22060E+01 0.00000E+00
 -1       526 1.36650E+02 4.22060E+01 0.00000E+00
 -1       527 1.39650E+02 4.22060E+01 0.00000E+00
 -1       528 1.90350E+01 6.60425E+00 0.00000E+00
 -1       529 2.20350E+01 6.60425E+00 0.00000E+00
 -1       530 2.50350E+01 6.60425E+00 0.00000E+00
 -1       531 2.80350E+01 6.60425E+00 0.00000E+00
 -1       532 3.10350E+01 6.60425E+00 0.00000E+00
 -1       533 3.40350E+01 6.60425E+00 0.00000E+00
 -1       534 3.70350E+01 6.60425E+00 0.00000E+00
 -1       535 4.00350E+01 6.60425E+00 0.00000E+00
 -1       536 4.31850E+01 6.60425E+00 0.00000E+00
 -1       537 4.61850E+01 6.60425E+00 0.00000E+00
 -1       538 4.99107E+01 6.15723E+00 0.00000E+00
 -1       539 7.76490E+01 7.17089E+00 0.00000E+00
 -1       540 8.06490E+01 7.17089E+00 0.00000E+00
 -1       541 8.36490E+01 7.17089E+00 0.00000E+00
 -1       542 8.66490E+01 7.17089E+00 0.00000E+00
 -1       543 8.96490E+01 7.17089E+00 0.00000E+00
 -1       544 9.26490E+01 7.17089E+00 0.00000E+00
 -1       545 9.56490E+01 7.17089E+00 0.00000E+00
 -1       546 9.86490E+01 7.17089E+00 0.00000E+00
 -1       547 1.01649E+02 7.17089E+00 0.00000E+00
 -1       548 1.04799E+02 7.17089E+00 0.00000E+00
 -1       549 1.07799E+02 7.17089E+00 0.00000E+00
 -1       550 1.10799E+02 7.17089E+00 0.00000E+00
 -1       551 1.13799E+02 7.17089E+00 0.00000E+00
 -1       552 1.16799E+02 7.17089E+00 0.00000E+00
 -1       553 1.19799E+02 7.17089E+00 0.00000E+00
 -1       554 1.22799E+02 7.17089E+00 0.00000E+00
 -1       555 1.25799E+02 7.17089E+00 0.00000E+00
 -1       556 1.28799E+02 7.17089E+00 0.00000E+00
 -1       557 1.31799E+02 7.17089E+00 0.00000E+00
 -1       558 1.34799E+02 7.17089E+00 0.00000E+00
 -1       559 1.37799E+02 7.17089E+00 0.00000E+00
 -1       560 1.40799E+02 7.17089E+00 0.00000E+00
 -1       561 1.42206E+02 1.61750E+01 0.00000E+00
 -1       562 1.42206E+02 1.32750E+01 0.00000E+00
 -1       563 1.42206E+02 1.03250E+01 0.00000E+00
 -1       564 6.85780E+01 7.05585E+00 0.00000E+00
 -1       565 1.42206E+02 1.91250E+01 0.00000E+00
 -1       566 1.42206E+02 2.20750E+01 0.00000E+00
 -1       567 1.42206E+02 2.50250E+01 0.00000E+00
 -1       568 1.42206E+02 2.79750E+01 0.00000E+00
 -1       569 1.42206E+02 3.08750E+01 0.00000E+00
 -1       570 1.42206E+02 3.38250E+01 0.00000E+00
 -1       571 1.42206E+02 3.67750E+01 0.00000E+00
 -1       572 1.42206E+02 3.97250E+01 0.00000E+00
 -1       573 6.94688E+01 9.77372E+00 0.00000E+00
 -1       574 6.96023E+01 1.42526E+01 0.00000E+00
 -1       575 1.60350E+01 6.60425E+00 0.00000E+00
 -1       576 6.96146E+01 1.21528E+01 0.00000E+00
 -1       577 6.90863E+01 1.65635E+01 0.00000E+00
 -1       578 5.46460E+01 2.38061E+01 0.00000E+00
 -1       579 4.79791E+01 1.02433E+01 0.00000E+00
 -1       580 7.46490E+01 7.17089E+00 0.00000E+00
 -1       581 7.79400E+00 2.79000E+01 0.00000E+00
 -1       582 4.82565E+01 1.72709E+01 0.00000E+00
 -1       583 4.86639E+01 8.13176E+00 0.00000E+00