    1C
    1UUSER                                                              
    1UDATE              27.october.2022                                 
    1UTIME              00:46:24                                        
    1UHOST                                                              
    1UPGM               CalculiX                                        
    1UVERSION           Version 2.17                             
    1UCOMPILETIME       Thu Jul 23 21:43:50 CEST 2020                    
    1UDIR                                                               
    1UDBN                                                               
    1UMAT    1SOLIDMATERIAL                                             
    2C                          4247                                     1
 -1         1 4.02502E+01 1.72876E+01 0.00000E+00
 -1         2 5.06978E+01 1.11955E+01 0.00000E+00
 -1         3 1.50000E+02 0.00000E+00 0.00000E+00
 -1         4 1.50000E+02 5.00000E+01 0.00000E+00
 -1         5 0.00000E+00 0.00000E+00 0.00000E+00
 -1         6 0.00000E+00 5.00000E+01 0.00000E+00
 -1         7 0.00000E+00 4.70500E+01 0.00000E+00
 -1         8 0.00000E+00 4.41000E+01 0.00000E+00
 -1         9 0.00000E+00 4.11500E+01 0.00000E+00
 -1        10 0.00000E+00 3.82000E+01 0.00000E+00
 -1        11 0.00000E+00 3.52500E+01 0.00000E+00
 -1        12 0.00000E+00 3.23500E+01 0.00000E+00
 -1        13 0.00000E+00 2.94000E+01 0.00000E+00
 -1        14 0.00000E+00 2.64500E+01 0.00000E+00
 -1        15 0.00000E+00 2.35000E+01 0.00000E+00
 -1        16 0.00000E+00 2.05500E+01 0.00000E+00
 -1        17 0.00000E+00 1.76000E+01 0.00000E+00
 -1        18 0.00000E+00 1.47000E+01 0.00000E+00
 -1        19 0.00000E+00 1.17500E+01 0.00000E+00
 -1        20 0.00000E+00 8.80000E+00 0.00000E+00
 -1        21 0.00000E+00 5.85000E+00 0.00000E+00
 -1        22 0.00000E+00 2.90000E+00 0.00000E+00
 -1        23 3.15000E+00 5.00000E+01 0.00000E+00
 -1        24 6.15000E+00 5.00000E+01 0.00000E+00
 -1        25 9.15000E+00 5.00000E+01 0.00000E+00
 -1        26 1.21500E+01 5.00000E+01 0.00000E+00
 -1        27 1.51500E+01 5.00000E+01 0.00000E+00
 -1        28 1.81500E+01 5.00000E+01 0.00000E+00
 -1        29 2.11500E+01 5.00000E+01 0.00000E+00
 -1        30 2.41500E+01 5.00000E+01 0.00000E+00
 -1        31 2.71500E+01 5.00000E+01 0.00000E+00
 -1        32 3.01500E+01 5.00000E+01 0.00000E+00
 -1        33 3.31500E+01 5.00000E+01 0.00000E+00
 -1        34 3.61500E+01 5.00000E+01 0.00000E+00
 -1        35 3.91500E+01 5.00000E+01 0.00000E+00
 -1        36 4.21500E+01 5.00000E+01 0.00000E+00
 -1        37 4.51500E+01 5.00000E+01 0.00000E+00
 -1        38 4.81500E+01 5.00000E+01 0.00000E+00
 -1        39 5.11500E+01 5.00000E+01 0.00000E+00
 -1        40 5.41500E+01 5.00000E+01 0.00000E+00
 -1        41 5.71500E+01 5.00000E+01 0.00000E+00
 -1        42 6.01500E+01 5.00000E+01 0.00000E+00
 -1        43 6.31500E+01 5.00000E+01 0.00000E+00
 -1        44 6.61500E+01 5.00000E+01 0.00000E+00
 -1        45 6.91500E+01 5.00000E+01 0.00000E+00
 -1        46 7.21500E+01 5.00000E+01 0.00000E+00
 -1        47 7.51500E+01 5.00000E+01 0.00000E+00
 -1        48 7.81500E+01 5.00000E+01 0.00000E+00
 -1        49 8.11500E+01 5.00000E+01 0.00000E+00
 -1        50 8.41500E+01 5.00000E+01 0.00000E+00
 -1        51 8.71500E+01 5.00000E+01 0.00000E+00
 -1        52 9.01500E+01 5.00000E+01 0.00000E+00
 -1        53 9.31500E+01 5.00000E+01 0.00000E+00
 -1        54 9.61500E+01 5.00000E+01 0.00000E+00
 -1        55 9.91500E+01 5.00000E+01 0.00000E+00
 -1        56 1.02150E+02 5.00000E+01 0.00000E+00
 -1        57 1.05150E+02 5.00000E+01 0.00000E+00
 -1        58 1.08150E+02 5.00000E+01 0.00000E+00
 -1        59 1.11150E+02 5.00000E+01 0.00000E+00
 -1        60 1.14150E+02 5.00000E+01 0.00000E+00
 -1        61 1.17150E+02 5.00000E+01 0.00000E+00
 -1        62 1.20150E+02 5.00000E+01 0.00000E+00
 -1        63 1.23150E+02 5.00000E+01 0.00000E+00
 -1        64 1.26150E+02 5.00000E+01 0.00000E+00
 -1        65 1.29150E+02 5.00000E+01 0.00000E+00
 -1        66 1.32150E+02 5.00000E+01 0.00000E+00
 -1        67 1.35150E+02 5.00000E+01 0.00000E+00
 -1        68 1.38150E+02 5.00000E+01 0.00000E+00
 -1        69 1.41150E+02 5.00000E+01 0.00000E+00
 -1        70 1.44150E+02 5.00000E+01 0.00000E+00
 -1        71 1.47150E+02 5.00000E+01 0.00000E+00
 -1        72 3.15000E+00 0.00000E+00 0.00000E+00
 -1        73 6.15000E+00 0.00000E+00 0.00000E+00
 -1        74 9.15000E+00 0.00000E+00 0.00000E+00
 -1        75 1.21500E+01 0.00000E+00 0.00000E+00
 -1        76 1.51500E+01 0.00000E+00 0.00000E+00
 -1        77 1.83000E+01 0.00000E+00 0.00000E+00
 -1        78 2.13000E+01 0.00000E+00 0.00000E+00
 -1        79 2.43000E+01 0.00000E+00 0.00000E+00
 -1        80 2.73000E+01 0.00000E+00 0.00000E+00
 -1        81 3.03000E+01 0.00000E+00 0.00000E+00
 -1        82 3.34500E+01 0.00000E+00 0.00000E+00
 -1        83 3.64500E+01 0.00000E+00 0.00000E+00
 -1        84 3.91500E+01 0.00000E+00 0.00000E+00
 -1        85 4.14000E+01 0.00000E+00 0.00000E+00
 -1        86 4.35000E+01 0.00000E+00 0.00000E+00
 -1        87 4.56000E+01 0.00000E+00 0.00000E+00
 -1        88 4.81500E+01 0.00000E+00 0.00000E+00
 -1        89 5.05500E+01 0.00000E+00 0.00000E+00
 -1        90 5.32500E+01 0.00000E+00 0.00000E+00
 -1        91 5.62500E+01 0.00000E+00 0.00000E+00
 -1        92 5.92500E+01 0.00000E+00 0.00000E+00
 -1        93 6.22500E+01 0.00000E+00 0.00000E+00
 -1        94 6.52500E+01 0.00000E+00 0.00000E+00
 -1        95 6.82500E+01 0.00000E+00 0.00000E+00
 -1        96 7.14000E+01 0.00000E+00 0.00000E+00
 -1        97 7.44000E+01 0.00000E+00 0.00000E+00
 -1        98 7.74000E+01 0.00000E+00 0.00000E+00
 -1        99 8.04000E+01 0.00000E+00 0.00000E+00
 -1       100 8.34000E+01 0.00000E+00 0.00000E+00
 -1       101 8.65500E+01 0.00000E+00 0.00000E+00
 -1       102 8.95500E+01 0.00000E+00 0.00000E+00
 -1       103 9.25500E+01 0.00000E+00 0.00000E+00
 -1       104 9.55500E+01 0.00000E+00 0.00000E+00
 -1       105 9.85500E+01 0.00000E+00 0.00000E+00
 -1       106 1.01700E+02 0.00000E+00 0.00000E+00
 -1       107 1.04700E+02 0.00000E+00 0.00000E+00
 -1       108 1.07700E+02 0.00000E+00 0.00000E+00
 -1       109 1.10700E+02 0.00000E+00 0.00000E+00
 -1       110 1.13700E+02 0.00000E+00 0.00000E+00
 -1       111 1.16700E+02 0.00000E+00 0.00000E+00
 -1       112 1.19850E+02 0.00000E+00 0.00000E+00
 -1       113 1.22850E+02 0.00000E+00 0.00000E+00
 -1       114 1.25850E+02 0.00000E+00 0.00000E+00
 -1       115 1.28850E+02 0.00000E+00 0.00000E+00
 -1       116 1.31850E+02 0.00000E+00 0.00000E+00
 -1       117 1.35000E+02 0.00000E+00 0.00000E+00
 -1       118 1.38000E+02 0.00000E+00 0.00000E+00
 -1       119 1.41000E+02 0.00000E+00 0.00000E+00
 -1       120 1.44000E+02 0.00000E+00 0.00000E+00
 -1       121 1.47000E+02 0.00000E+00 0.00000E+00
 -1       122 1.50000E+02 2.95000E+00 0.00000E+00
 -1       123 1.50000E+02 5.90000E+00 0.00000E+00
 -1       124 1.50000E+02 8.85000E+00 0.00000E+00
 -1       125 1.50000E+02 1.18000E+01 0.00000E+00
 -1       126 1.50000E+02 1.47500E+01 0.00000E+00
 -1       127 1.50000E+02 1.76500E+01 0.00000E+00
 -1       128 1.50000E+02 2.06000E+01 0.00000E+00
 -1       129 1.50000E+02 2.35500E+01 0.00000E+00
 -1       130 1.50000E+02 2.65000E+01 0.00000E+00
 -1       131 1.50000E+02 2.94500E+01 0.00000E+00
 -1       132 1.50000E+02 3.24000E+01 0.00000E+00
 -1       133 1.50000E+02 3.53000E+01 0.00000E+00
 -1       134 1.50000E+02 3.82500E+01 0.00000E+00
 -1       135 1.50000E+02 4.12000E+01 0.00000E+00
 -1       136 1.50000E+02 4.41500E+01 0.00000E+00
 -1       137 1.50000E+02 4.71000E+01 0.00000E+00
 -1       138 5.05486E+01 9.75828E+00 0.00000E+00
 -1       139 5.00951E+01 8.35393E+00 0.00000E+00
 -1       140 4.93854E+01 7.11489E+00 0.00000E+00
 -1       141 4.83520E+01 5.96691E+00 0.00000E+00
 -1       142 4.71552E+01 5.10890E+00 0.00000E+00
 -1       143 4.58978E+01 4.55019E+00 0.00000E+00
 -1       144 4.44821E+01 4.23954E+00 0.00000E+00
 -1       145 4.30727E+01 4.22343E+00 0.00000E+00
 -1       146 4.15778E+01 4.52421E+00 0.00000E+00
 -1       147 4.02530E+01 5.10171E+00 0.00000E+00
 -1       148 3.90315E+01 5.97760E+00 0.00000E+00
 -1       149 3.80515E+01 7.05791E+00 0.00000E+00
 -1       150 3.72951E+01 8.36606E+00 0.00000E+00
 -1       151 3.68497E+01 9.74486E+00 0.00000E+00
 -1       152 3.66981E+01 1.11298E+01 0.00000E+00
 -1       153 3.68492E+01 1.26435E+01 0.00000E+00
 -1       154 3.73270E+01 1.40960E+01 0.00000E+00
 -1       155 3.80331E+01 1.53078E+01 0.00000E+00
 -1       156 3.90974E+01 1.64715E+01 0.00000E+00
 -1       157 4.15713E+01 1.78646E+01 0.00000E+00
 -1       158 4.30606E+01 1.81664E+01 0.00000E+00
 -1       159 4.45414E+01 1.81444E+01 0.00000E+00
 -1       160 4.59369E+01 1.78277E+01 0.00000E+00
 -1       161 4.72934E+01 1.72014E+01 0.00000E+00
 -1       162 4.84331E+01 1.63507E+01 0.00000E+00
 -1       163 4.93789E+01 1.52850E+01 0.00000E+00
 -1       164 5.00991E+01 1.40281E+01 0.00000E+00
 -1       165 5.05558E+01 1.25980E+01 0.00000E+00
 -1       166 2.59800E+00 4.55750E+01 0.00000E+00
 -1       167 2.59800E+00 4.26250E+01 0.00000E+00
 -1       168 2.59800E+00 3.96750E+01 0.00000E+00
 -1       169 2.59800E+00 3.67250E+01 0.00000E+00
 -1       170 2.59800E+00 3.38250E+01 0.00000E+00
 -1       171 2.59800E+00 3.08750E+01 0.00000E+00
 -1       172 2.59800E+00 2.79250E+01 0.00000E+00
 -1       173 2.59800E+00 2.49750E+01 0.00000E+00
 -1       174 2.59800E+00 2.20250E+01 0.00000E+00
 -1       175 2.59800E+00 1.90750E+01 0.00000E+00
 -1       176 2.59800E+00 1.61750E+01 0.00000E+00
 -1       177 2.59800E+00 1.32250E+01 0.00000E+00
 -1       178 2.59800E+00 1.02750E+01 0.00000E+00
 -1       179 2.59800E+00 7.32500E+00 0.00000E+00
 -1       180 2.59800E+00 4.37500E+00 0.00000E+00
 -1       181 2.87400E+00 2.18750E+00 0.00000E+00
 -1       182 4.65000E+00 4.74020E+01 0.00000E+00
 -1       183 7.65000E+00 4.74020E+01 0.00000E+00
 -1       184 1.06500E+01 4.74020E+01 0.00000E+00
 -1       185 1.36500E+01 4.74020E+01 0.00000E+00
 -1       186 1.66500E+01 4.74020E+01 0.00000E+00
 -1       187 1.96500E+01 4.74020E+01 0.00000E+00
 -1       188 2.26500E+01 4.74020E+01 0.00000E+00
 -1       189 2.56500E+01 4.74020E+01 0.00000E+00
 -1       190 2.86500E+01 4.74020E+01 0.00000E+00
 -1       191 3.16500E+01 4.74020E+01 0.00000E+00
 -1       192 3.46500E+01 4.74020E+01 0.00000E+00
 -1       193 3.76500E+01 4.74020E+01 0.00000E+00
 -1       194 4.06500E+01 4.74020E+01 0.00000E+00
 -1       195 4.36500E+01 4.74020E+01 0.00000E+00
 -1       196 4.66500E+01 4.74020E+01 0.00000E+00
 -1       197 4.96500E+01 4.74020E+01 0.00000E+00
 -1       198 5.26500E+01 4.74020E+01 0.00000E+00
 -1       199 5.56500E+01 4.74020E+01 0.00000E+00
 -1       200 5.86500E+01 4.74020E+01 0.00000E+00
 -1       201 6.16500E+01 4.74020E+01 0.00000E+00
 -1       202 6.46500E+01 4.74020E+01 0.00000E+00
 -1       203 6.76500E+01 4.74020E+01 0.00000E+00
 -1       204 7.06500E+01 4.74020E+01 0.00000E+00
 -1       205 7.36500E+01 4.74020E+01 0.00000E+00
 -1       206 7.66500E+01 4.74020E+01 0.00000E+00
 -1       207 7.96500E+01 4.74020E+01 0.00000E+00
 -1       208 8.26500E+01 4.74020E+01 0.00000E+00
 -1       209 8.56500E+01 4.74020E+01 0.00000E+00
 -1       210 8.86500E+01 4.74020E+01 0.00000E+00
 -1       211 9.16500E+01 4.74020E+01 0.00000E+00
 -1       212 9.46500E+01 4.74020E+01 0.00000E+00
 -1       213 9.76500E+01 4.74020E+01 0.00000E+00
 -1       214 1.00650E+02 4.74020E+01 0.00000E+00
 -1       215 1.03650E+02 4.74020E+01 0.00000E+00
 -1       216 1.06650E+02 4.74020E+01 0.00000E+00
 -1       217 1.09650E+02 4.74020E+01 0.00000E+00
 -1       218 1.12650E+02 4.74020E+01 0.00000E+00
 -1       219 1.15650E+02 4.74020E+01 0.00000E+00
 -1       220 1.18650E+02 4.74020E+01 0.00000E+00
 -1       221 1.21650E+02 4.74020E+01 0.00000E+00
 -1       222 1.24650E+02 4.74020E+01 0.00000E+00
 -1       223 1.27650E+02 4.74020E+01 0.00000E+00
 -1       224 1.30650E+02 4.74020E+01 0.00000E+00
 -1       225 1.33650E+02 4.74020E+01 0.00000E+00
 -1       226 1.36650E+02 4.74020E+01 0.00000E+00
 -1       227 1.39650E+02 4.74020E+01 0.00000E+00
 -1       228 1.42650E+02 4.74020E+01 0.00000E+00
 -1       229 1.45650E+02 4.74020E+01 0.00000E+00
 -1       230 5.87400E+00 2.18750E+00 0.00000E+00
 -1       231 8.87400E+00 2.18750E+00 0.00000E+00
 -1       232 1.18740E+01 2.18750E+00 0.00000E+00
 -1       233 1.48740E+01 2.18750E+00 0.00000E+00
 -1       234 1.80240E+01 2.18750E+00 0.00000E+00
 -1       235 2.10240E+01 2.18750E+00 0.00000E+00
 -1       236 2.40240E+01 2.18750E+00 0.00000E+00
 -1       237 2.70240E+01 2.18750E+00 0.00000E+00
 -1       238 3.00240E+01 2.18750E+00 0.00000E+00
 -1       239 3.31740E+01 2.18750E+00 0.00000E+00
 -1       240 3.61740E+01 2.18750E+00 0.00000E+00
 -1       241 3.88740E+01 2.18750E+00 0.00000E+00
 -1       242 4.24500E+01 2.05024E+00 0.00000E+00
 -1       243 4.45500E+01 2.05024E+00 0.00000E+00
 -1       244 4.71000E+01 2.05024E+00 0.00000E+00
 -1       245 4.95000E+01 2.05024E+00 0.00000E+00
 -1       246 5.22000E+01 2.05024E+00 0.00000E+00
 -1       247 5.52000E+01 2.05024E+00 0.00000E+00
 -1       248 5.82000E+01 2.05024E+00 0.00000E+00
 -1       249 6.12000E+01 2.05024E+00 0.00000E+00
 -1       250 6.42000E+01 2.05024E+00 0.00000E+00
 -1       251 6.72000E+01 2.05024E+00 0.00000E+00
 -1       252 7.03500E+01 2.05024E+00 0.00000E+00
 -1       253 7.33500E+01 2.05024E+00 0.00000E+00
 -1       254 7.63500E+01 2.05024E+00 0.00000E+00
 -1       255 7.93500E+01 2.05024E+00 0.00000E+00
 -1       256 8.23500E+01 2.05024E+00 0.00000E+00
 -1       257 8.55000E+01 2.05024E+00 0.00000E+00
 -1       258 8.85000E+01 2.05024E+00 0.00000E+00
 -1       259 9.15000E+01 2.05024E+00 0.00000E+00
 -1       260 9.45000E+01 2.05024E+00 0.00000E+00
 -1       261 9.75000E+01 2.05024E+00 0.00000E+00
 -1       262 1.00650E+02 2.05024E+00 0.00000E+00
 -1       263 1.03650E+02 2.05024E+00 0.00000E+00
 -1       264 1.06650E+02 2.05024E+00 0.00000E+00
 -1       265 1.09650E+02 2.05024E+00 0.00000E+00
 -1       266 1.12650E+02 2.05024E+00 0.00000E+00
 -1       267 1.15650E+02 2.05024E+00 0.00000E+00
 -1       268 1.18800E+02 2.05024E+00 0.00000E+00
 -1       269 1.21800E+02 2.05024E+00 0.00000E+00
 -1       270 1.24800E+02 2.05024E+00 0.00000E+00
 -1       271 1.27800E+02 2.05024E+00 0.00000E+00
 -1       272 1.30800E+02 2.05024E+00 0.00000E+00
 -1       273 1.33950E+02 2.05024E+00 0.00000E+00
 -1       274 1.36950E+02 2.05024E+00 0.00000E+00
 -1       275 1.39950E+02 2.05024E+00 0.00000E+00
 -1       276 1.42950E+02 2.05024E+00 0.00000E+00
 -1       277 1.45950E+02 2.05024E+00 0.00000E+00
 -1       278 1.47975E+02 2.50012E+00 0.00000E+00
 -1       279 1.47975E+02 5.45012E+00 0.00000E+00
 -1       280 1.47975E+02 8.40012E+00 0.00000E+00
 -1       281 1.47975E+02 1.13501E+01 0.00000E+00
 -1       282 1.47975E+02 1.43001E+01 0.00000E+00
 -1       283 1.47975E+02 1.72001E+01 0.00000E+00
 -1       284 1.47975E+02 2.01501E+01 0.00000E+00
 -1       285 1.47975E+02 2.31001E+01 0.00000E+00
 -1       286 1.47975E+02 2.60501E+01 0.00000E+00
 -1       287 1.47975E+02 2.90001E+01 0.00000E+00
 -1       288 1.47975E+02 3.19501E+01 0.00000E+00
 -1       289 1.47975E+02 3.48501E+01 0.00000E+00
 -1       290 1.47975E+02 3.78001E+01 0.00000E+00
 -1       291 1.47975E+02 4.07501E+01 0.00000E+00
 -1       292 1.47975E+02 4.37001E+01 0.00000E+00
 -1       293 5.19125E+01 1.03431E+01 0.00000E+00
 -1       294 5.15553E+01 8.65774E+00 0.00000E+00
 -1       295 5.07923E+01 7.13181E+00 0.00000E+00
 -1       296 4.97698E+01 5.72978E+00 0.00000E+00
 -1       297 4.85088E+01 4.48447E+00 0.00000E+00
 -1       298 4.70528E+01 3.64505E+00 0.00000E+00
 -1       299 4.54677E+01 3.12880E+00 0.00000E+00
 -1       300 4.37912E+01 3.01918E+00 0.00000E+00
 -1       301 4.20530E+01 3.02097E+00 0.00000E+00
 -1       302 4.04309E+01 3.70157E+00 0.00000E+00
 -1       303 3.89358E+01 4.55437E+00 0.00000E+00
 -1       304 3.76435E+01 5.70314E+00 0.00000E+00
 -1       305 3.63336E+01 6.93734E+00 0.00000E+00
 -1       306 3.58390E+01 8.65706E+00 0.00000E+00
 -1       307 3.55687E+01 1.03054E+01 0.00000E+00
 -1       308 3.54005E+01 1.20237E+01 0.00000E+00
 -1       309 3.56180E+01 1.38533E+01 0.00000E+00
 -1       310 3.65601E+01 1.53545E+01 0.00000E+00
 -1       311 3.74851E+01 1.68776E+01 0.00000E+00
 -1       312 3.89249E+01 1.79375E+01 0.00000E+00
 -1       313 4.04254E+01 1.86872E+01 0.00000E+00
 -1       314 4.20585E+01 1.92859E+01 0.00000E+00
 -1       315 4.38189E+01 1.93677E+01 0.00000E+00
 -1       316 4.55075E+01 1.91684E+01 0.00000E+00
 -1       317 4.71936E+01 1.87674E+01 0.00000E+00
 -1       318 4.85885E+01 1.77476E+01 0.00000E+00
 -1       319 4.98128E+01 1.66226E+01 0.00000E+00
 -1       320 5.08637E+01 1.53009E+01 0.00000E+00
 -1       321 5.14824E+01 1.36819E+01 0.00000E+00
 -1       322 5.18330E+01 1.20188E+01 0.00000E+00
 -1       323 4.02750E+01 1.71512E+00 0.00000E+00
 -1       324 1.47402E+02 4.56250E+01 0.00000E+00
 -1       325 5.19600E+00 4.11500E+01 0.00000E+00
 -1       326 5.19600E+00 4.41000E+01 0.00000E+00
 -1       327 5.19600E+00 3.52750E+01 0.00000E+00
 -1       328 5.19600E+00 3.23250E+01 0.00000E+00
 -1       329 5.19600E+00 2.93750E+01 0.00000E+00
 -1       330 5.19600E+00 2.64250E+01 0.00000E+00
 -1       331 5.19600E+00 2.34750E+01 0.00000E+00
 -1       332 5.19600E+00 2.05250E+01 0.00000E+00
 -1       333 5.19600E+00 1.76250E+01 0.00000E+00
 -1       334 5.19600E+00 1.46750E+01 0.00000E+00
 -1       335 5.19600E+00 1.17250E+01 0.00000E+00
 -1       336 5.19600E+00 8.77500E+00 0.00000E+00
 -1       337 5.19600E+00 5.82500E+00 0.00000E+00
 -1       338 5.53500E+00 4.00625E+00 0.00000E+00
 -1       339 8.53500E+00 4.00625E+00 0.00000E+00
 -1       340 9.15000E+00 4.48040E+01 0.00000E+00
 -1       341 1.21500E+01 4.48040E+01 0.00000E+00
 -1       342 1.51500E+01 4.48040E+01 0.00000E+00
 -1       343 1.81500E+01 4.48040E+01 0.00000E+00
 -1       344 2.11500E+01 4.48040E+01 0.00000E+00
 -1       345 2.41500E+01 4.48040E+01 0.00000E+00
 -1       346 2.71500E+01 4.48040E+01 0.00000E+00
 -1       347 3.01500E+01 4.48040E+01 0.00000E+00
 -1       348 3.31500E+01 4.48040E+01 0.00000E+00
 -1       349 3.61500E+01 4.48040E+01 0.00000E+00
 -1       350 3.91500E+01 4.48040E+01 0.00000E+00
 -1       351 4.21500E+01 4.48040E+01 0.00000E+00
 -1       352 4.51500E+01 4.48040E+01 0.00000E+00
 -1       353 4.81500E+01 4.48040E+01 0.00000E+00
 -1       354 5.11500E+01 4.48040E+01 0.00000E+00
 -1       355 5.41500E+01 4.48040E+01 0.00000E+00
 -1       356 5.71500E+01 4.48040E+01 0.00000E+00
 -1       357 6.01500E+01 4.48040E+01 0.00000E+00
 -1       358 6.31500E+01 4.48040E+01 0.00000E+00
 -1       359 6.61500E+01 4.48040E+01 0.00000E+00
 -1       360 6.91500E+01 4.48040E+01 0.00000E+00
 -1       361 7.21500E+01 4.48040E+01 0.00000E+00
 -1       362 7.51500E+01 4.48040E+01 0.00000E+00
 -1       363 7.81500E+01 4.48040E+01 0.00000E+00
 -1       364 8.11500E+01 4.48040E+01 0.00000E+00
 -1       365 8.41500E+01 4.48040E+01 0.00000E+00
 -1       366 8.71500E+01 4.48040E+01 0.00000E+00
 -1       367 9.01500E+01 4.48040E+01 0.00000E+00
 -1       368 9.31500E+01 4.48040E+01 0.00000E+00
 -1       369 9.61500E+01 4.48040E+01 0.00000E+00
 -1       370 9.91500E+01 4.48040E+01 0.00000E+00
 -1       371 1.02150E+02 4.48040E+01 0.00000E+00
 -1       372 1.05150E+02 4.48040E+01 0.00000E+00
 -1       373 1.08150E+02 4.48040E+01 0.00000E+00
 -1       374 1.11150E+02 4.48040E+01 0.00000E+00
 -1       375 1.14150E+02 4.48040E+01 0.00000E+00
 -1       376 1.17150E+02 4.48040E+01 0.00000E+00
 -1       377 1.20150E+02 4.48040E+01 0.00000E+00
 -1       378 1.23150E+02 4.48040E+01 0.00000E+00
 -1       379 1.26150E+02 4.48040E+01 0.00000E+00
 -1       380 1.29150E+02 4.48040E+01 0.00000E+00
 -1       381 1.32150E+02 4.48040E+01 0.00000E+00
 -1       382 1.35150E+02 4.48040E+01 0.00000E+00
 -1       383 1.38150E+02 4.48040E+01 0.00000E+00
 -1       384 1.41150E+02 4.48040E+01 0.00000E+00
 -1       385 1.44150E+02 4.48040E+01 0.00000E+00
 -1       386 1.15350E+01 4.00625E+00 0.00000E+00
 -1       387 1.45350E+01 4.00625E+00 0.00000E+00
 -1       388 1.76850E+01 4.00625E+00 0.00000E+00
 -1       389 2.06850E+01 4.00625E+00 0.00000E+00
 -1       390 2.36850E+01 4.00625E+00 0.00000E+00
 -1       391 2.66850E+01 4.00625E+00 0.00000E+00
 -1       392 2.96850E+01 4.00625E+00 0.00000E+00
 -1       393 3.28350E+01 4.00625E+00 0.00000E+00
 -1       394 3.75240E+01 3.81883E+00 0.00000E+00
 -1       395 5.02267E+01 4.00602E+00 0.00000E+00
 -1       396 5.24830E+01 7.24012E+00 0.00000E+00
 -1       397 5.37000E+01 4.60320E+00 0.00000E+00
 -1       398 5.67000E+01 4.60320E+00 0.00000E+00
 -1       399 5.97000E+01 4.60320E+00 0.00000E+00
 -1       400 6.27000E+01 4.60320E+00 0.00000E+00
 -1       401 6.57000E+01 4.60320E+00 0.00000E+00
 -1       402 6.88500E+01 4.60320E+00 0.00000E+00
 -1       403 7.18500E+01 4.60320E+00 0.00000E+00
 -1       404 7.48500E+01 4.60320E+00 0.00000E+00
 -1       405 7.78500E+01 4.60320E+00 0.00000E+00
 -1       406 8.08500E+01 4.60320E+00 0.00000E+00
 -1       407 8.40000E+01 4.60320E+00 0.00000E+00
 -1       408 8.70000E+01 4.60320E+00 0.00000E+00
 -1       409 9.00000E+01 4.60320E+00 0.00000E+00
 -1       410 9.30000E+01 4.60320E+00 0.00000E+00
 -1       411 9.60000E+01 4.60320E+00 0.00000E+00
 -1       412 9.91500E+01 4.60320E+00 0.00000E+00
 -1       413 1.02150E+02 4.60320E+00 0.00000E+00
 -1       414 1.05150E+02 4.60320E+00 0.00000E+00
 -1       415 1.08150E+02 4.60320E+00 0.00000E+00
 -1       416 1.11150E+02 4.60320E+00 0.00000E+00
 -1       417 1.14150E+02 4.60320E+00 0.00000E+00
 -1       418 1.17300E+02 4.60320E+00 0.00000E+00
 -1       419 1.20300E+02 4.60320E+00 0.00000E+00
 -1       420 1.23300E+02 4.60320E+00 0.00000E+00
 -1       421 1.26300E+02 4.60320E+00 0.00000E+00
 -1       422 1.29300E+02 4.60320E+00 0.00000E+00
 -1       423 1.32450E+02 4.60320E+00 0.00000E+00
 -1       424 1.35450E+02 4.60320E+00 0.00000E+00
 -1       425 1.38450E+02 4.60320E+00 0.00000E+00
 -1       426 1.41450E+02 4.60320E+00 0.00000E+00
 -1       427 1.44450E+02 4.60320E+00 0.00000E+00
 -1       428 1.46212E+02 5.02666E+00 0.00000E+00
 -1       429 1.45377E+02 9.87512E+00 0.00000E+00
 -1       430 1.45795E+02 7.45089E+00 0.00000E+00
 -1       431 1.45377E+02 1.28251E+01 0.00000E+00
 -1       432 1.45377E+02 1.57251E+01 0.00000E+00
 -1       433 1.45377E+02 1.86751E+01 0.00000E+00
 -1       434 1.45377E+02 2.16251E+01 0.00000E+00
 -1       435 1.45377E+02 2.45751E+01 0.00000E+00
 -1       436 1.45377E+02 2.75251E+01 0.00000E+00
 -1       437 1.45377E+02 3.04751E+01 0.00000E+00
 -1       438 1.45377E+02 3.33751E+01 0.00000E+00
 -1       439 1.45377E+02 3.63251E+01 0.00000E+00
 -1       440 1.45377E+02 3.92751E+01 0.00000E+00
 -1       441 1.45377E+02 4.22251E+01 0.00000E+00
 -1       442 5.32512E+01 1.12463E+01 0.00000E+00
 -1       443 5.13960E+01 5.61769E+00 0.00000E+00
 -1       444 5.19600E+00 3.82125E+01 0.00000E+00
 -1       445 3.60997E+01 5.37682E+00 0.00000E+00
 -1       446 3.45990E+01 7.36945E+00 0.00000E+00
 -1       447 3.42594E+01 9.24438E+00 0.00000E+00
 -1       448 3.40911E+01 1.09627E+01 0.00000E+00
 -1       449 3.42221E+01 1.30916E+01 0.00000E+00
 -1       450 3.47073E+01 1.54710E+01 0.00000E+00
 -1       451 3.56323E+01 1.69941E+01 0.00000E+00
 -1       452 3.71882E+01 1.87887E+01 0.00000E+00
 -1       453 3.90584E+01 1.95468E+01 0.00000E+00
 -1       454 4.07381E+01 2.03608E+01 0.00000E+00
 -1       455 4.28591E+01 2.10401E+01 0.00000E+00
 -1       456 4.48152E+01 2.05553E+01 0.00000E+00
 -1       457 4.67086E+01 2.04735E+01 0.00000E+00
 -1       458 4.87549E+01 1.94392E+01 0.00000E+00
 -1       459 4.99793E+01 1.83142E+01 0.00000E+00
 -1       460 5.13529E+01 1.67684E+01 0.00000E+00
 -1       461 5.24621E+01 1.49840E+01 0.00000E+00
 -1       462 5.32539E+01 1.31869E+01 0.00000E+00
 -1       463 5.34117E+01 9.14486E+00 0.00000E+00
 -1       464 3.54088E+01 3.94532E+00 0.00000E+00
 -1       465 3.43652E+01 5.80893E+00 0.00000E+00
 -1       466 1.00350E+01 6.60425E+00 0.00000E+00
 -1       467 7.79400E+00 3.08500E+01 0.00000E+00
 -1       468 7.79400E+00 3.38000E+01 0.00000E+00
 -1       469 7.79400E+00 2.49500E+01 0.00000E+00
 -1       470 7.79400E+00 2.20000E+01 0.00000E+00
 -1       471 7.79400E+00 1.91000E+01 0.00000E+00
 -1       472 7.79400E+00 1.61500E+01 0.00000E+00
 -1       473 7.79400E+00 1.32000E+01 0.00000E+00
 -1       474 7.79400E+00 1.02500E+01 0.00000E+00
 -1       475 1.30350E+01 6.60425E+00 0.00000E+00
 -1       476 1.06500E+01 4.22060E+01 0.00000E+00
 -1       477 1.36500E+01 4.22060E+01 0.00000E+00
 -1       478 1.66500E+01 4.22060E+01 0.00000E+00
 -1       479 1.96500E+01 4.22060E+01 0.00000E+00
 -1       480 2.26500E+01 4.22060E+01 0.00000E+00
 -1       481 2.56500E+01 4.22060E+01 0.00000E+00
 -1       482 2.86500E+01 4.22060E+01 0.00000E+00
 -1       483 3.16500E+01 4.22060E+01 0.00000E+00
 -1       484 3.46500E+01 4.22060E+01 0.00000E+00
 -1       485 3.76500E+01 4.22060E+01 0.00000E+00
 -1       486 4.06500E+01 4.22060E+01 0.00000E+00
 -1       487 4.36500E+01 4.22060E+01 0.00000E+00
 -1       488 4.66500E+01 4.22060E+01 0.00000E+00
 -1       489 4.96500E+01 4.22060E+01 0.00000E+00
 -1       490 5.26500E+01 4.22060E+01 0.00000E+00
 -1       491 5.56500E+01 4.22060E+01 0.00000E+00
 -1       492 5.86500E+01 4.22060E+01 0.00000E+00
 -1       493 6.16500E+01 4.22060E+01 0.00000E+00
 -1       494 6.46500E+01 4.22060E+01 0.00000E+00
 -1       495 6.76500E+01 4.22060E+01 0.00000E+00
 -1       496 7.06500E+01 4.22060E+01 0.00000E+00
 -1       497 7.36500E+01 4.22060E+01 0.00000E+00
 -1       498 7.66500E+01 4.22060E+01 0.00000E+00
 -1       499 7.96500E+01 4.22060E+01 0.00000E+00
 -1       500 8.26500E+01 4.22060E+01 0.00000E+00
 -1       501 8.56500E+01 4.22060E+01 0.00000E+00
 -1       502 8.86500E+01 4.22060E+01 0.00000E+00
 -1       503 9.16500E+01 4.22060E+01 0.00000E+00
 -1       504 9.46500E+01 4.22060E+01 0.00000E+00
 -1       505 9.76500E+01 4.22060E+01 0.00000E+00
 -1       506 1.00650E+02 4.22060E+01 0.00000E+00
 -1       507 1.03650E+02 4.22060E+01 0.00000E+00
 -1       508 1.06650E+02 4.22060E+01 0.00000E+00
 -1       509 1.09650E+02 4.22060E+01 0.00000E+00
 -1       510 1.12650E+02 4.22060E+01 0.00000E+00
 -1       511 1.15650E+02 4.22060E+01 0.00000E+00
 -1       512 1.18650E+02 4.22060E+01 0.00000E+00
 -1       513 1.21650E+02 4.22060E+01 0.00000E+00
 -1       514 1.24650E+02 4.22060E+01 0.00000E+00
 -1       515 1.27650E+02 4.22060E+01 0.00000E+00
 -1       516 1.30650E+02 4.22060E+01 0.00000E+00
 -1       517 1.33650E+02 4.22060E+01 0.00000E+00
 -1       518 1.36650E+02 4.22060E+01 0.00000E+00
 -1       519 1.39650E+02 4.22060E+01 0.00000E+00
 -1       520 1.42514E+02 4.22156E+01 0.00000E+00
 -1       521 1.61850E+01 6.60425E+00 0.00000E+00
 -1       522 1.91850E+01 6.60425E+00 0.00000E+00
 -1       523 2.21850E+01 6.60425E+00 0.00000E+00
 -1       524 2.51850E+01 6.60425E+00 0.00000E+00
 -1       525 2.81850E+01 6.60425E+00 0.00000E+00
 -1       526 3.12600E+01 6.22407E+00 0.00000E+00
 -1       527 5.46325E+01 1.22147E+01 0.00000E+00
 -1       528 7.92300E+00 4.16780E+01 0.00000E+00
 -1       529 3.27416E+01 8.00120E+00 0.00000E+00
 -1       530 5.54830E+01 7.24012E+00 0.00000E+00
 -1       531 6.42000E+01 7.20120E+00 0.00000E+00
 -1       532 6.73500E+01 7.20120E+00 0.00000E+00
 -1       533 7.03500E+01 7.20120E+00 0.00000E+00
 -1       534 7.33500E+01 7.20120E+00 0.00000E+00
 -1       535 7.63500E+01 7.20120E+00 0.00000E+00
 -1       536 7.93500E+01 7.20120E+00 0.00000E+00
 -1       537 8.25000E+01 7.20120E+00 0.00000E+00
 -1       538 8.55000E+01 7.20120E+00 0.00000E+00
 -1       539 8.85000E+01 7.20120E+00 0.00000E+00
 -1       540 9.15000E+01 7.20120E+00 0.00000E+00
 -1       541 9.45000E+01 7.20120E+00 0.00000E+00
 -1       542 9.76500E+01 7.20120E+00 0.00000E+00
 -1       543 1.00650E+02 7.20120E+00 0.00000E+00
 -1       544 1.03650E+02 7.20120E+00 0.00000E+00
 -1       545 1.06650E+02 7.20120E+00 0.00000E+00
 -1       546 1.09650E+02 7.20120E+00 0.00000E+00
 -1       547 1.12650E+02 7.20120E+00 0.00000E+00
 -1       548 1.15800E+02 7.20120E+00 0.00000E+00
 -1       549 1.18800E+02 7.20120E+00 0.00000E+00
 -1       550 1.21800E+02 7.20120E+00 0.00000E+00
 -1       551 1.24800E+02 7.20120E+00 0.00000E+00
 -1       552 1.27800E+02 7.20120E+00 0.00000E+00
 -1       553 1.30950E+02 7.20120E+00 0.00000E+00
 -1       554 1.33950E+02 7.20120E+00 0.00000E+00
 -1       555 1.36950E+02 7.20120E+00 0.00000E+00
 -1       556 1.39950E+02 7.20120E+00 0.00000E+00
 -1       557 1.44032E+02 7.02743E+00 0.00000E+00
 -1       558 1.42779E+02 1.42751E+01 0.00000E+00
 -1       559 1.42779E+02 1.72251E+01 0.00000E+00
 -1       560 1.42779E+02 1.13251E+01 0.00000E+00
 -1       561 1.42779E+02 2.01751E+01 0.00000E+00
 -1       562 1.42779E+02 2.31251E+01 0.00000E+00
 -1       563 1.42779E+02 2.60751E+01 0.00000E+00
 -1       564 1.42779E+02 2.90251E+01 0.00000E+00
 -1       565 1.42779E+02 3.19251E+01 0.00000E+00
 -1       566 1.42779E+02 3.48751E+01 0.00000E+00
 -1       567 1.42779E+02 3.78251E+01 0.00000E+00
 -1       568 5.47931E+01 1.01132E+01 0.00000E+00
 -1       569 5.42741E+01 1.47095E+01 0.00000E+00
 -1       570 4.85810E+01 2.16366E+01 0.00000E+00
 -1       571 3.26120E+01 1.21222E+01 0.00000E+00
 -1       572 6.12000E+01 7.20120E+00 0.00000E+00
 -1       573 5.83415E+01 7.22066E+00 0.00000E+00
 -1       574 7.79400E+00 2.79000E+01 0.00000E+00
 -1       575 3.27842E+01 1.46240E+01 0.00000E+00
 -1       576 3.25733E+01 9.71956E+00 0.00000E+00
 -1       577 3.73531E+01 2.10678E+01 0.00000E+00
 -1       578 3.37039E+01 1.71229E+01 0.00000E+00
 -1       579 5.31507E+01 1.66490E+01 0.00000E+00
 -1       580 3.49877E+01 1.91247E+01 0.00000E+00
 -1       581 3.90328E+01 2.18819E+01 0.00000E+00
 -1       582 4.11538E+01 2.25611E+01 0.00000E+00
 -1       583 4.42497E+01 2.24624E+01 0.00000E+00