    1C
    1UUSER                                                              
    1UDATE              27.october.2022                                 
    1UTIME              00:29:23                                        
    1UHOST                                                              
    1UPGM               CalculiX                                        
    1UVERSION           Version 2.17                             
    1UCOMPILETIME       Thu Jul 23 21:43:50 CEST 2020                    
    1UDIR                                                               
    1UDBN                                                               
    1UMAT    1SOLIDMATERIAL                                             
    2C                          4277                                     1
 -1         1 8.36399E+01 2.48770E+01 0.00000E+00
 -1         2 9.47147E+01 1.91852E+01 0.00000E+00
 -1         3 1.50000E+02 0.00000E+00 0.00000E+00
 -1         4 1.50000E+02 5.00000E+01 0.00000E+00
 -1         5 0.00000E+00 0.00000E+00 0.00000E+00
 -1         6 0.00000E+00 5.00000E+01 0.00000E+00
 -1         7 0.00000E+00 4.70500E+01 0.00000E+00
 -1         8 0.00000E+00 4.41000E+01 0.00000E+00
 -1         9 0.00000E+00 4.11500E+01 0.00000E+00
 -1        10 0.00000E+00 3.82000E+01 0.00000E+00
 -1        11 0.00000E+00 3.52500E+01 0.00000E+00
 -1        12 0.00000E+00 3.23500E+01 0.00000E+00
 -1        13 0.00000E+00 2.94000E+01 0.00000E+00
 -1        14 0.00000E+00 2.64500E+01 0.00000E+00
 -1        15 0.00000E+00 2.35000E+01 0.00000E+00
 -1        16 0.00000E+00 2.05500E+01 0.00000E+00
 -1        17 0.00000E+00 1.76000E+01 0.00000E+00
 -1        18 0.00000E+00 1.47000E+01 0.00000E+00
 -1        19 0.00000E+00 1.17500E+01 0.00000E+00
 -1        20 0.00000E+00 8.80000E+00 0.00000E+00
 -1        21 0.00000E+00 5.85000E+00 0.00000E+00
 -1        22 0.00000E+00 2.90000E+00 0.00000E+00
 -1        23 3.15000E+00 5.00000E+01 0.00000E+00
 -1        24 6.15000E+00 5.00000E+01 0.00000E+00
 -1        25 9.15000E+00 5.00000E+01 0.00000E+00
 -1        26 1.21500E+01 5.00000E+01 0.00000E+00
 -1        27 1.51500E+01 5.00000E+01 0.00000E+00
 -1        28 1.81500E+01 5.00000E+01 0.00000E+00
 -1        29 2.11500E+01 5.00000E+01 0.00000E+00
 -1        30 2.41500E+01 5.00000E+01 0.00000E+00
 -1        31 2.71500E+01 5.00000E+01 0.00000E+00
 -1        32 3.01500E+01 5.00000E+01 0.00000E+00
 -1        33 3.31500E+01 5.00000E+01 0.00000E+00
 -1        34 3.61500E+01 5.00000E+01 0.00000E+00
 -1        35 3.91500E+01 5.00000E+01 0.00000E+00
 -1        36 4.21500E+01 5.00000E+01 0.00000E+00
 -1        37 4.51500E+01 5.00000E+01 0.00000E+00
 -1        38 4.81500E+01 5.00000E+01 0.00000E+00
 -1        39 5.11500E+01 5.00000E+01 0.00000E+00
 -1        40 5.41500E+01 5.00000E+01 0.00000E+00
 -1        41 5.71500E+01 5.00000E+01 0.00000E+00
 -1        42 6.01500E+01 5.00000E+01 0.00000E+00
 -1        43 6.31500E+01 5.00000E+01 0.00000E+00
 -1        44 6.61500E+01 5.00000E+01 0.00000E+00
 -1        45 6.91500E+01 5.00000E+01 0.00000E+00
 -1        46 7.21500E+01 5.00000E+01 0.00000E+00
 -1        47 7.51500E+01 5.00000E+01 0.00000E+00
 -1        48 7.81500E+01 5.00000E+01 0.00000E+00
 -1        49 8.11500E+01 5.00000E+01 0.00000E+00
 -1        50 8.41500E+01 5.00000E+01 0.00000E+00
 -1        51 8.71500E+01 5.00000E+01 0.00000E+00
 -1        52 9.01500E+01 5.00000E+01 0.00000E+00
 -1        53 9.31500E+01 5.00000E+01 0.00000E+00
 -1        54 9.61500E+01 5.00000E+01 0.00000E+00
 -1        55 9.91500E+01 5.00000E+01 0.00000E+00
 -1        56 1.02150E+02 5.00000E+01 0.00000E+00
 -1        57 1.05150E+02 5.00000E+01 0.00000E+00
 -1        58 1.08150E+02 5.00000E+01 0.00000E+00
 -1        59 1.11150E+02 5.00000E+01 0.00000E+00
 -1        60 1.14150E+02 5.00000E+01 0.00000E+00
 -1        61 1.17150E+02 5.00000E+01 0.00000E+00
 -1        62 1.20150E+02 5.00000E+01 0.00000E+00
 -1        63 1.23150E+02 5.00000E+01 0.00000E+00
 -1        64 1.26150E+02 5.00000E+01 0.00000E+00
 -1        65 1.29150E+02 5.00000E+01 0.00000E+00
 -1        66 1.32150E+02 5.00000E+01 0.00000E+00
 -1        67 1.35150E+02 5.00000E+01 0.00000E+00
 -1        68 1.38150E+02 5.00000E+01 0.00000E+00
 -1        69 1.41150E+02 5.00000E+01 0.00000E+00
 -1        70 1.44150E+02 5.00000E+01 0.00000E+00
 -1        71 1.47150E+02 5.00000E+01 0.00000E+00
 -1        72 3.15000E+00 0.00000E+00 0.00000E+00
 -1        73 6.15000E+00 0.00000E+00 0.00000E+00
 -1        74 9.15000E+00 0.00000E+00 0.00000E+00
 -1        75 1.21500E+01 0.00000E+00 0.00000E+00
 -1        76 1.51500E+01 0.00000E+00 0.00000E+00
 -1        77 1.81500E+01 0.00000E+00 0.00000E+00
 -1        78 2.11500E+01 0.00000E+00 0.00000E+00
 -1        79 2.41500E+01 0.00000E+00 0.00000E+00
 -1        80 2.71500E+01 0.00000E+00 0.00000E+00
 -1        81 3.01500E+01 0.00000E+00 0.00000E+00
 -1        82 3.31500E+01 0.00000E+00 0.00000E+00
 -1        83 3.61500E+01 0.00000E+00 0.00000E+00
 -1        84 3.91500E+01 0.00000E+00 0.00000E+00
 -1        85 4.21500E+01 0.00000E+00 0.00000E+00
 -1        86 4.51500E+01 0.00000E+00 0.00000E+00
 -1        87 4.81500E+01 0.00000E+00 0.00000E+00
 -1        88 5.11500E+01 0.00000E+00 0.00000E+00
 -1        89 5.41500E+01 0.00000E+00 0.00000E+00
 -1        90 5.71500E+01 0.00000E+00 0.00000E+00
 -1        91 6.01500E+01 0.00000E+00 0.00000E+00
 -1        92 6.31500E+01 0.00000E+00 0.00000E+00
 -1        93 6.61500E+01 0.00000E+00 0.00000E+00
 -1        94 6.91500E+01 0.00000E+00 0.00000E+00
 -1        95 7.21500E+01 0.00000E+00 0.00000E+00
 -1        96 7.51500E+01 0.00000E+00 0.00000E+00
 -1        97 7.81500E+01 0.00000E+00 0.00000E+00
 -1        98 8.11500E+01 0.00000E+00 0.00000E+00
 -1        99 8.41500E+01 0.00000E+00 0.00000E+00
 -1       100 8.71500E+01 0.00000E+00 0.00000E+00
 -1       101 9.01500E+01 0.00000E+00 0.00000E+00
 -1       102 9.30000E+01 0.00000E+00 0.00000E+00
 -1       103 9.60000E+01 0.00000E+00 0.00000E+00
 -1       104 9.90000E+01 0.00000E+00 0.00000E+00
 -1       105 1.02000E+02 0.00000E+00 0.00000E+00
 -1       106 1.05000E+02 0.00000E+00 0.00000E+00
 -1       107 1.08000E+02 0.00000E+00 0.00000E+00
 -1       108 1.11000E+02 0.00000E+00 0.00000E+00
 -1       109 1.14000E+02 0.00000E+00 0.00000E+00
 -1       110 1.17000E+02 0.00000E+00 0.00000E+00
 -1       111 1.20000E+02 0.00000E+00 0.00000E+00
 -1       112 1.23000E+02 0.00000E+00 0.00000E+00
 -1       113 1.26000E+02 0.00000E+00 0.00000E+00
 -1       114 1.29000E+02 0.00000E+00 0.00000E+00
 -1       115 1.32000E+02 0.00000E+00 0.00000E+00
 -1       116 1.35000E+02 0.00000E+00 0.00000E+00
 -1       117 1.38000E+02 0.00000E+00 0.00000E+00
 -1       118 1.41000E+02 0.00000E+00 0.00000E+00
 -1       119 1.44000E+02 0.00000E+00 0.00000E+00
 -1       120 1.47000E+02 0.00000E+00 0.00000E+00
 -1       121 1.50000E+02 2.95000E+00 0.00000E+00
 -1       122 1.50000E+02 5.90000E+00 0.00000E+00
 -1       123 1.50000E+02 8.85000E+00 0.00000E+00
 -1       124 1.50000E+02 1.18000E+01 0.00000E+00
 -1       125 1.50000E+02 1.47500E+01 0.00000E+00
 -1       126 1.50000E+02 1.76500E+01 0.00000E+00
 -1       127 1.50000E+02 2.06000E+01 0.00000E+00
 -1       128 1.50000E+02 2.35500E+01 0.00000E+00
 -1       129 1.50000E+02 2.65000E+01 0.00000E+00
 -1       130 1.50000E+02 2.94500E+01 0.00000E+00
 -1       131 1.50000E+02 3.24000E+01 0.00000E+00
 -1       132 1.50000E+02 3.53000E+01 0.00000E+00
 -1       133 1.50000E+02 3.82500E+01 0.00000E+00
 -1       134 1.50000E+02 4.12000E+01 0.00000E+00
 -1       135 1.50000E+02 4.41500E+01 0.00000E+00
 -1       136 1.50000E+02 4.71000E+01 0.00000E+00
 -1       137 9.45726E+01 1.77817E+01 0.00000E+00
 -1       138 9.41508E+01 1.64327E+01 0.00000E+00
 -1       139 9.34017E+01 1.51038E+01 0.00000E+00
 -1       140 9.23522E+01 1.39418E+01 0.00000E+00
 -1       141 9.11826E+01 1.31046E+01 0.00000E+00
 -1       142 8.98301E+01 1.25125E+01 0.00000E+00
 -1       143 8.84063E+01 1.22195E+01 0.00000E+00
 -1       144 8.68892E+01 1.22341E+01 0.00000E+00
 -1       145 8.52859E+01 1.26201E+01 0.00000E+00
 -1       146 8.40074E+01 1.32475E+01 0.00000E+00
 -1       147 8.28227E+01 1.41784E+01 0.00000E+00
 -1       148 8.18298E+01 1.53947E+01 0.00000E+00
 -1       149 8.11188E+01 1.68413E+01 0.00000E+00
 -1       150 8.07738E+01 1.82779E+01 0.00000E+00
 -1       151 8.07450E+01 1.98355E+01 0.00000E+00
 -1       152 8.10273E+01 2.12536E+01 0.00000E+00
 -1       153 8.15779E+01 2.25527E+01 0.00000E+00
 -1       154 8.24801E+01 2.38326E+01 0.00000E+00
 -1       155 8.49409E+01 2.56122E+01 0.00000E+00
 -1       156 8.65211E+01 2.60827E+01 0.00000E+00
 -1       157 8.80337E+01 2.61780E+01 0.00000E+00
 -1       158 8.95680E+01 2.59354E+01 0.00000E+00
 -1       159 9.09736E+01 2.53804E+01 0.00000E+00
 -1       160 9.22205E+01 2.45422E+01 0.00000E+00
 -1       161 9.32749E+01 2.34377E+01 0.00000E+00
 -1       162 9.40486E+01 2.21654E+01 0.00000E+00
 -1       163 9.45330E+01 2.07699E+01 0.00000E+00
 -1       164 2.59800E+00 4.55750E+01 0.00000E+00
 -1       165 2.59800E+00 4.26250E+01 0.00000E+00
 -1       166 2.59800E+00 3.96750E+01 0.00000E+00
 -1       167 2.59800E+00 3.67250E+01 0.00000E+00
 -1       168 2.59800E+00 3.38250E+01 0.00000E+00
 -1       169 2.59800E+00 3.08750E+01 0.00000E+00
 -1       170 2.59800E+00 2.79250E+01 0.00000E+00
 -1       171 2.59800E+00 2.49750E+01 0.00000E+00
 -1       172 2.59800E+00 2.20250E+01 0.00000E+00
 -1       173 2.59800E+00 1.90750E+01 0.00000E+00
 -1       174 2.59800E+00 1.61750E+01 0.00000E+00
 -1       175 2.59800E+00 1.32250E+01 0.00000E+00
 -1       176 2.59800E+00 1.02750E+01 0.00000E+00
 -1       177 2.59800E+00 7.32500E+00 0.00000E+00
 -1       178 2.59800E+00 4.37500E+00 0.00000E+00
 -1       179 2.87400E+00 2.18750E+00 0.00000E+00
 -1       180 4.65000E+00 4.74020E+01 0.00000E+00
 -1       181 7.65000E+00 4.74020E+01 0.00000E+00
 -1       182 1.06500E+01 4.74020E+01 0.00000E+00
 -1       183 1.36500E+01 4.74020E+01 0.00000E+00
 -1       184 1.66500E+01 4.74020E+01 0.00000E+00
 -1       185 1.96500E+01 4.74020E+01 0.00000E+00
 -1       186 2.26500E+01 4.74020E+01 0.00000E+00
 -1       187 2.56500E+01 4.74020E+01 0.00000E+00
 -1       188 2.86500E+01 4.74020E+01 0.00000E+00
 -1       189 3.16500E+01 4.74020E+01 0.00000E+00
 -1       190 3.46500E+01 4.74020E+01 0.00000E+00
 -1       191 3.76500E+01 4.74020E+01 0.00000E+00
 -1       192 4.06500E+01 4.74020E+01 0.00000E+00
 -1       193 4.36500E+01 4.74020E+01 0.00000E+00
 -1       194 4.66500E+01 4.74020E+01 0.00000E+00
 -1       195 4.96500E+01 4.74020E+01 0.00000E+00
 -1       196 5.26500E+01 4.74020E+01 0.00000E+00
 -1       197 5.56500E+01 4.74020E+01 0.00000E+00
 -1       198 5.86500E+01 4.74020E+01 0.00000E+00
 -1       199 6.16500E+01 4.74020E+01 0.00000E+00
 -1       200 6.46500E+01 4.74020E+01 0.00000E+00
 -1       201 6.76500E+01 4.74020E+01 0.00000E+00
 -1       202 7.06500E+01 4.74020E+01 0.00000E+00
 -1       203 7.36500E+01 4.74020E+01 0.00000E+00
 -1       204 7.66500E+01 4.74020E+01 0.00000E+00
 -1       205 7.96500E+01 4.74020E+01 0.00000E+00
 -1       206 8.26500E+01 4.74020E+01 0.00000E+00
 -1       207 8.56500E+01 4.74020E+01 0.00000E+00
 -1       208 8.86500E+01 4.74020E+01 0.00000E+00
 -1       209 9.16500E+01 4.74020E+01 0.00000E+00
 -1       210 9.46500E+01 4.74020E+01 0.00000E+00
 -1       211 9.76500E+01 4.74020E+01 0.00000E+00
 -1       212 1.00650E+02 4.74020E+01 0.00000E+00
 -1       213 1.03650E+02 4.74020E+01 0.00000E+00
 -1       214 1.06650E+02 4.74020E+01 0.00000E+00
 -1       215 1.09650E+02 4.74020E+01 0.00000E+00
 -1       216 1.12650E+02 4.74020E+01 0.00000E+00
 -1       217 1.15650E+02 4.74020E+01 0.00000E+00
 -1       218 1.18650E+02 4.74020E+01 0.00000E+00
 -1       219 1.21650E+02 4.74020E+01 0.00000E+00
 -1       220 1.24650E+02 4.74020E+01 0.00000E+00
 -1       221 1.27650E+02 4.74020E+01 0.00000E+00
 -1       222 1.30650E+02 4.74020E+01 0.00000E+00
 -1       223 1.33650E+02 4.74020E+01 0.00000E+00
 -1       224 1.36650E+02 4.74020E+01 0.00000E+00
 -1       225 1.39650E+02 4.74020E+01 0.00000E+00
 -1       226 1.42650E+02 4.74020E+01 0.00000E+00
 -1       227 1.45650E+02 4.74020E+01 0.00000E+00
 -1       228 5.87400E+00 2.18750E+00 0.00000E+00
 -1       229 8.87400E+00 2.18750E+00 0.00000E+00
 -1       230 1.18740E+01 2.18750E+00 0.00000E+00
 -1       231 1.48740E+01 2.18750E+00 0.00000E+00
 -1       232 1.78740E+01 2.18750E+00 0.00000E+00
 -1       233 2.08740E+01 2.18750E+00 0.00000E+00
 -1       234 2.38740E+01 2.18750E+00 0.00000E+00
 -1       235 2.68740E+01 2.18750E+00 0.00000E+00
 -1       236 2.98740E+01 2.18750E+00 0.00000E+00
 -1       237 3.28740E+01 2.18750E+00 0.00000E+00
 -1       238 3.58740E+01 2.18750E+00 0.00000E+00
 -1       239 3.88740E+01 2.18750E+00 0.00000E+00
 -1       240 4.18740E+01 2.18750E+00 0.00000E+00
 -1       241 4.48740E+01 2.18750E+00 0.00000E+00
 -1       242 4.78740E+01 2.18750E+00 0.00000E+00
 -1       243 5.08740E+01 2.18750E+00 0.00000E+00
 -1       244 5.38740E+01 2.18750E+00 0.00000E+00
 -1       245 5.68740E+01 2.18750E+00 0.00000E+00
 -1       246 5.98740E+01 2.18750E+00 0.00000E+00
 -1       247 6.28740E+01 2.18750E+00 0.00000E+00
 -1       248 6.58740E+01 2.18750E+00 0.00000E+00
 -1       249 6.88740E+01 2.18750E+00 0.00000E+00
 -1       250 7.18740E+01 2.18750E+00 0.00000E+00
 -1       251 7.48740E+01 2.18750E+00 0.00000E+00
 -1       252 7.78740E+01 2.18750E+00 0.00000E+00
 -1       253 8.08740E+01 2.18750E+00 0.00000E+00
 -1       254 8.38740E+01 2.18750E+00 0.00000E+00
 -1       255 8.68740E+01 2.18750E+00 0.00000E+00
 -1       256 8.98740E+01 2.18750E+00 0.00000E+00
 -1       257 9.27240E+01 2.18750E+00 0.00000E+00
 -1       258 9.57240E+01 2.18750E+00 0.00000E+00
 -1       259 9.87240E+01 2.18750E+00 0.00000E+00
 -1       260 1.01724E+02 2.18750E+00 0.00000E+00
 -1       261 1.04724E+02 2.18750E+00 0.00000E+00
 -1       262 1.07724E+02 2.18750E+00 0.00000E+00
 -1       263 1.10724E+02 2.18750E+00 0.00000E+00
 -1       264 1.13724E+02 2.18750E+00 0.00000E+00
 -1       265 1.16724E+02 2.18750E+00 0.00000E+00
 -1       266 1.19724E+02 2.18750E+00 0.00000E+00
 -1       267 1.22724E+02 2.18750E+00 0.00000E+00
 -1       268 1.25724E+02 2.18750E+00 0.00000E+00
 -1       269 1.28724E+02 2.18750E+00 0.00000E+00
 -1       270 1.31724E+02 2.18750E+00 0.00000E+00
 -1       271 1.34724E+02 2.18750E+00 0.00000E+00
 -1       272 1.37724E+02 2.18750E+00 0.00000E+00
 -1       273 1.40724E+02 2.18750E+00 0.00000E+00
 -1       274 1.43724E+02 2.18750E+00 0.00000E+00
 -1       275 1.46724E+02 2.18750E+00 0.00000E+00
 -1       276 1.47402E+02 4.42500E+00 0.00000E+00
 -1       277 1.47402E+02 7.37500E+00 0.00000E+00
 -1       278 1.47402E+02 1.03250E+01 0.00000E+00
 -1       279 1.47402E+02 1.32750E+01 0.00000E+00
 -1       280 1.47402E+02 1.61750E+01 0.00000E+00
 -1       281 1.47402E+02 1.91250E+01 0.00000E+00
 -1       282 1.47402E+02 2.20750E+01 0.00000E+00
 -1       283 1.47402E+02 2.50250E+01 0.00000E+00
 -1       284 1.47402E+02 2.79750E+01 0.00000E+00
 -1       285 1.47402E+02 3.09250E+01 0.00000E+00
 -1       286 1.47402E+02 3.38250E+01 0.00000E+00
 -1       287 1.47402E+02 3.67750E+01 0.00000E+00
 -1       288 1.47402E+02 3.97250E+01 0.00000E+00
 -1       289 1.47402E+02 4.26750E+01 0.00000E+00
 -1       290 1.46526E+02 4.50385E+01 0.00000E+00
 -1       291 9.58499E+01 1.83613E+01 0.00000E+00
 -1       292 9.55189E+01 1.67454E+01 0.00000E+00
 -1       293 9.48324E+01 1.51729E+01 0.00000E+00
 -1       294 9.39633E+01 1.35417E+01 0.00000E+00
 -1       295 9.25218E+01 1.24692E+01 0.00000E+00
 -1       296 9.09925E+01 1.16979E+01 0.00000E+00
 -1       297 8.93626E+01 1.11785E+01 0.00000E+00
 -1       298 8.76352E+01 1.09306E+01 0.00000E+00
 -1       299 8.57449E+01 1.10040E+01 0.00000E+00
 -1       300 8.41125E+01 1.18454E+01 0.00000E+00
 -1       301 8.24590E+01 1.24961E+01 0.00000E+00
 -1       302 8.12572E+01 1.39139E+01 0.00000E+00
 -1       303 8.01606E+01 1.54723E+01 0.00000E+00
 -1       304 7.96859E+01 1.72569E+01 0.00000E+00
 -1       305 7.93796E+01 1.90312E+01 0.00000E+00
 -1       306 7.96971E+01 2.07813E+01 0.00000E+00
 -1       307 8.01863E+01 2.23763E+01 0.00000E+00
 -1       308 8.10380E+01 2.38911E+01 0.00000E+00
 -1       309 8.20245E+01 2.55048E+01 0.00000E+00
 -1       310 8.36939E+01 2.63001E+01 0.00000E+00
 -1       311 8.53372E+01 2.71700E+01 0.00000E+00
 -1       312 8.71959E+01 2.74240E+01 0.00000E+00
 -1       313 8.90032E+01 2.73370E+01 0.00000E+00
 -1       314 9.07469E+01 2.68635E+01 0.00000E+00
 -1       315 9.22734E+01 2.59675E+01 0.00000E+00
 -1       316 9.36853E+01 2.48850E+01 0.00000E+00
 -1       317 9.46977E+01 2.34315E+01 0.00000E+00
 -1       318 9.54362E+01 2.18652E+01 0.00000E+00
 -1       319 9.59948E+01 2.01348E+01 0.00000E+00
 -1       320 5.19600E+00 4.11500E+01 0.00000E+00
 -1       321 5.19600E+00 4.41000E+01 0.00000E+00
 -1       322 5.19600E+00 3.52750E+01 0.00000E+00
 -1       323 5.19600E+00 3.23250E+01 0.00000E+00
 -1       324 5.19600E+00 2.93750E+01 0.00000E+00
 -1       325 5.19600E+00 2.64250E+01 0.00000E+00
 -1       326 5.19600E+00 2.34750E+01 0.00000E+00
 -1       327 5.19600E+00 2.05250E+01 0.00000E+00
 -1       328 5.19600E+00 1.76250E+01 0.00000E+00
 -1       329 5.19600E+00 1.46750E+01 0.00000E+00
 -1       330 5.19600E+00 1.17250E+01 0.00000E+00
 -1       331 5.19600E+00 8.77500E+00 0.00000E+00
 -1       332 5.19600E+00 5.82500E+00 0.00000E+00
 -1       333 5.53500E+00 4.00625E+00 0.00000E+00
 -1       334 8.53500E+00 4.00625E+00 0.00000E+00
 -1       335 9.15000E+00 4.48040E+01 0.00000E+00
 -1       336 1.21500E+01 4.48040E+01 0.00000E+00
 -1       337 1.51500E+01 4.48040E+01 0.00000E+00
 -1       338 1.81500E+01 4.48040E+01 0.00000E+00
 -1       339 2.11500E+01 4.48040E+01 0.00000E+00
 -1       340 2.41500E+01 4.48040E+01 0.00000E+00
 -1       341 2.71500E+01 4.48040E+01 0.00000E+00
 -1       342 3.01500E+01 4.48040E+01 0.00000E+00
 -1       343 3.31500E+01 4.48040E+01 0.00000E+00
 -1       344 3.61500E+01 4.48040E+01 0.00000E+00
 -1       345 3.91500E+01 4.48040E+01 0.00000E+00
 -1       346 4.21500E+01 4.48040E+01 0.00000E+00
 -1       347 4.51500E+01 4.48040E+01 0.00000E+00
 -1       348 4.81500E+01 4.48040E+01 0.00000E+00
 -1       349 5.11500E+01 4.48040E+01 0.00000E+00
 -1       350 5.41500E+01 4.48040E+01 0.00000E+00
 -1       351 5.71500E+01 4.48040E+01 0.00000E+00
 -1       352 6.01500E+01 4.48040E+01 0.00000E+00
 -1       353 6.31500E+01 4.48040E+01 0.00000E+00
 -1       354 6.61500E+01 4.48040E+01 0.00000E+00
 -1       355 6.91500E+01 4.48040E+01 0.00000E+00
 -1       356 7.21500E+01 4.48040E+01 0.00000E+00
 -1       357 7.51500E+01 4.48040E+01 0.00000E+00
 -1       358 7.81500E+01 4.48040E+01 0.00000E+00
 -1       359 8.11500E+01 4.48040E+01 0.00000E+00
 -1       360 8.41500E+01 4.48040E+01 0.00000E+00
 -1       361 8.71500E+01 4.48040E+01 0.00000E+00
 -1       362 9.01500E+01 4.48040E+01 0.00000E+00
 -1       363 9.31500E+01 4.48040E+01 0.00000E+00
 -1       364 9.61500E+01 4.48040E+01 0.00000E+00
 -1       365 9.91500E+01 4.48040E+01 0.00000E+00
 -1       366 1.02150E+02 4.48040E+01 0.00000E+00
 -1       367 1.05150E+02 4.48040E+01 0.00000E+00
 -1       368 1.08150E+02 4.48040E+01 0.00000E+00
 -1       369 1.11150E+02 4.48040E+01 0.00000E+00
 -1       370 1.14150E+02 4.48040E+01 0.00000E+00
 -1       371 1.17150E+02 4.48040E+01 0.00000E+00
 -1       372 1.20150E+02 4.48040E+01 0.00000E+00
 -1       373 1.23150E+02 4.48040E+01 0.00000E+00
 -1       374 1.26150E+02 4.48040E+01 0.00000E+00
 -1       375 1.29150E+02 4.48040E+01 0.00000E+00
 -1       376 1.32150E+02 4.48040E+01 0.00000E+00
 -1       377 1.35150E+02 4.48040E+01 0.00000E+00
 -1       378 1.38150E+02 4.48040E+01 0.00000E+00
 -1       379 1.41150E+02 4.48040E+01 0.00000E+00
 -1       380 1.43838E+02 4.49212E+01 0.00000E+00
 -1       381 1.15350E+01 4.00625E+00 0.00000E+00
 -1       382 1.45350E+01 4.00625E+00 0.00000E+00
 -1       383 1.75350E+01 4.00625E+00 0.00000E+00
 -1       384 2.05350E+01 4.00625E+00 0.00000E+00
 -1       385 2.35350E+01 4.00625E+00 0.00000E+00
 -1       386 2.65350E+01 4.00625E+00 0.00000E+00
 -1       387 2.95350E+01 4.00625E+00 0.00000E+00
 -1       388 3.25350E+01 4.00625E+00 0.00000E+00
 -1       389 3.55350E+01 4.00625E+00 0.00000E+00
 -1       390 3.85350E+01 4.00625E+00 0.00000E+00
 -1       391 4.15350E+01 4.00625E+00 0.00000E+00
 -1       392 4.45350E+01 4.00625E+00 0.00000E+00
 -1       393 4.75350E+01 4.00625E+00 0.00000E+00
 -1       394 5.05350E+01 4.00625E+00 0.00000E+00
 -1       395 5.35350E+01 4.00625E+00 0.00000E+00
 -1       396 5.65350E+01 4.00625E+00 0.00000E+00
 -1       397 5.95350E+01 4.00625E+00 0.00000E+00
 -1       398 6.25350E+01 4.00625E+00 0.00000E+00
 -1       399 6.55350E+01 4.00625E+00 0.00000E+00
 -1       400 6.85350E+01 4.00625E+00 0.00000E+00
 -1       401 7.15350E+01 4.00625E+00 0.00000E+00
 -1       402 7.45350E+01 4.00625E+00 0.00000E+00
 -1       403 7.75350E+01 4.00625E+00 0.00000E+00
 -1       404 8.05350E+01 4.00625E+00 0.00000E+00
 -1       405 8.35350E+01 4.00625E+00 0.00000E+00
 -1       406 8.65350E+01 4.00625E+00 0.00000E+00
 -1       407 8.95350E+01 4.00625E+00 0.00000E+00
 -1       408 9.23850E+01 4.00625E+00 0.00000E+00
 -1       409 9.53850E+01 4.00625E+00 0.00000E+00
 -1       410 9.83850E+01 4.00625E+00 0.00000E+00
 -1       411 1.01385E+02 4.00625E+00 0.00000E+00
 -1       412 1.04385E+02 4.00625E+00 0.00000E+00
 -1       413 1.07385E+02 4.00625E+00 0.00000E+00
 -1       414 1.10385E+02 4.00625E+00 0.00000E+00
 -1       415 1.13385E+02 4.00625E+00 0.00000E+00
 -1       416 1.16385E+02 4.00625E+00 0.00000E+00
 -1       417 1.19385E+02 4.00625E+00 0.00000E+00
 -1       418 1.22385E+02 4.00625E+00 0.00000E+00
 -1       419 1.25385E+02 4.00625E+00 0.00000E+00
 -1       420 1.28385E+02 4.00625E+00 0.00000E+00
 -1       421 1.31385E+02 4.00625E+00 0.00000E+00
 -1       422 1.34385E+02 4.00625E+00 0.00000E+00
 -1       423 1.37385E+02 4.00625E+00 0.00000E+00
 -1       424 1.40385E+02 4.00625E+00 0.00000E+00
 -1       425 1.43385E+02 4.00625E+00 0.00000E+00
 -1       426 1.45393E+02 4.21562E+00 0.00000E+00
 -1       427 1.44804E+02 1.18000E+01 0.00000E+00
 -1       428 1.44804E+02 8.85000E+00 0.00000E+00
 -1       429 1.45099E+02 6.53281E+00 0.00000E+00
 -1       430 1.44804E+02 1.47000E+01 0.00000E+00
 -1       431 1.44804E+02 1.76500E+01 0.00000E+00
 -1       432 1.44804E+02 2.06000E+01 0.00000E+00
 -1       433 1.44804E+02 2.35500E+01 0.00000E+00
 -1       434 1.44804E+02 2.65000E+01 0.00000E+00
 -1       435 1.44804E+02 2.94500E+01 0.00000E+00
 -1       436 1.44804E+02 3.23500E+01 0.00000E+00
 -1       437 1.44804E+02 3.53000E+01 0.00000E+00
 -1       438 1.44804E+02 3.82500E+01 0.00000E+00
 -1       439 1.44804E+02 4.12000E+01 0.00000E+00
 -1       440 9.64404E+01 1.54071E+01 0.00000E+00
 -1       441 9.72142E+01 1.91424E+01 0.00000E+00
 -1       442 9.70363E+01 1.72764E+01 0.00000E+00
 -1       443 9.56897E+01 1.36690E+01 0.00000E+00
 -1       444 9.42164E+01 1.16967E+01 0.00000E+00
 -1       445 5.19600E+00 3.82125E+01 0.00000E+00
 -1       446 9.06220E+01 1.00435E+01 0.00000E+00
 -1       447 8.86830E+01 9.77150E+00 0.00000E+00
 -1       448 8.66333E+01 9.50465E+00 0.00000E+00
 -1       449 8.41813E+01 9.97467E+00 0.00000E+00
 -1       450 8.25277E+01 1.06253E+01 0.00000E+00
 -1       451 8.07415E+01 1.22586E+01 0.00000E+00
 -1       452 7.95119E+01 1.38508E+01 0.00000E+00
 -1       453 7.85897E+01 1.60098E+01 0.00000E+00
 -1       454 7.80078E+01 1.78808E+01 0.00000E+00
 -1       455 7.81805E+01 2.01525E+01 0.00000E+00
 -1       456 7.84622E+01 2.20326E+01 0.00000E+00
 -1       457 7.92632E+01 2.38921E+01 0.00000E+00
 -1       458 8.02497E+01 2.55059E+01 0.00000E+00
 -1       459 8.23018E+01 2.70727E+01 0.00000E+00
 -1       460 8.38699E+01 2.79547E+01 0.00000E+00
 -1       461 8.60912E+01 2.85813E+01 0.00000E+00
 -1       462 8.81740E+01 2.89262E+01 0.00000E+00
 -1       463 9.02806E+01 2.85937E+01 0.00000E+00
 -1       464 9.23359E+01 2.78224E+01 0.00000E+00
 -1       465 9.38699E+01 2.65879E+01 0.00000E+00
 -1       466 9.53926E+01 2.49949E+01 0.00000E+00
 -1       467 9.65425E+01 2.33440E+01 0.00000E+00
 -1       468 9.70287E+01 2.14239E+01 0.00000E+00
 -1       469 9.24163E+01 1.07766E+01 0.00000E+00
 -1       470 9.82481E+01 2.04316E+01 0.00000E+00
 -1       471 8.05270E+01 2.70737E+01 0.00000E+00
 -1       472 1.00350E+01 6.60425E+00 0.00000E+00
 -1       473 7.79400E+00 3.08500E+01 0.00000E+00
 -1       474 7.79400E+00 3.38000E+01 0.00000E+00
 -1       475 7.79400E+00 2.49500E+01 0.00000E+00
 -1       476 7.79400E+00 2.20000E+01 0.00000E+00
 -1       477 7.79400E+00 1.91000E+01 0.00000E+00
 -1       478 7.79400E+00 1.61500E+01 0.00000E+00
 -1       479 7.79400E+00 1.32000E+01 0.00000E+00
 -1       480 7.79400E+00 1.02500E+01 0.00000E+00
 -1       481 1.30350E+01 6.60425E+00 0.00000E+00
 -1       482 1.06500E+01 4.22060E+01 0.00000E+00
 -1       483 9.40969E+01 9.70947E+00 0.00000E+00
 -1       484 1.36500E+01 4.22060E+01 0.00000E+00
 -1       485 1.66500E+01 4.22060E+01 0.00000E+00
 -1       486 1.96500E+01 4.22060E+01 0.00000E+00
 -1       487 2.26500E+01 4.22060E+01 0.00000E+00
 -1       488 2.56500E+01 4.22060E+01 0.00000E+00
 -1       489 2.86500E+01 4.22060E+01 0.00000E+00
 -1       490 3.16500E+01 4.22060E+01 0.00000E+00
 -1       491 3.46500E+01 4.22060E+01 0.00000E+00
 -1       492 3.76500E+01 4.22060E+01 0.00000E+00
 -1       493 4.06500E+01 4.22060E+01 0.00000E+00
 -1       494 4.36500E+01 4.22060E+01 0.00000E+00
 -1       495 4.66500E+01 4.22060E+01 0.00000E+00
 -1       496 4.96500E+01 4.22060E+01 0.00000E+00
 -1       497 5.26500E+01 4.22060E+01 0.00000E+00
 -1       498 5.56500E+01 4.22060E+01 0.00000E+00
 -1       499 5.86500E+01 4.22060E+01 0.00000E+00
 -1       500 6.16500E+01 4.22060E+01 0.00000E+00
 -1       501 6.46500E+01 4.22060E+01 0.00000E+00
 -1       502 6.76500E+01 4.22060E+01 0.00000E+00
 -1       503 7.06500E+01 4.22060E+01 0.00000E+00
 -1       504 7.36500E+01 4.22060E+01 0.00000E+00
 -1       505 7.66500E+01 4.22060E+01 0.00000E+00
 -1       506 7.96500E+01 4.22060E+01 0.00000E+00
 -1       507 8.26500E+01 4.22060E+01 0.00000E+00
 -1       508 8.56500E+01 4.22060E+01 0.00000E+00
 -1       509 8.86500E+01 4.22060E+01 0.00000E+00
 -1       510 9.16500E+01 4.22060E+01 0.00000E+00
 -1       511 9.46500E+01 4.22060E+01 0.00000E+00
 -1       512 9.76500E+01 4.22060E+01 0.00000E+00
 -1       513 1.00650E+02 4.22060E+01 0.00000E+00
 -1       514 1.03650E+02 4.22060E+01 0.00000E+00
 -1       515 1.06650E+02 4.22060E+01 0.00000E+00
 -1       516 1.09650E+02 4.22060E+01 0.00000E+00
 -1       517 1.12650E+02 4.22060E+01 0.00000E+00
 -1       518 1.15650E+02 4.22060E+01 0.00000E+00
 -1       519 1.18650E+02 4.22060E+01 0.00000E+00
 -1       520 1.21650E+02 4.22060E+01 0.00000E+00
 -1       521 1.24650E+02 4.22060E+01 0.00000E+00
 -1       522 1.27650E+02 4.22060E+01 0.00000E+00
 -1       523 1.30650E+02 4.22060E+01 0.00000E+00
 -1       524 1.33650E+02 4.22060E+01 0.00000E+00
 -1       525 1.36650E+02 4.22060E+01 0.00000E+00
 -1       526 1.39650E+02 4.22060E+01 0.00000E+00
 -1       527 1.90350E+01 6.60425E+00 0.00000E+00
 -1       528 2.20350E+01 6.60425E+00 0.00000E+00
 -1       529 2.50350E+01 6.60425E+00 0.00000E+00
 -1       530 2.80350E+01 6.60425E+00 0.00000E+00
 -1       531 3.10350E+01 6.60425E+00 0.00000E+00
 -1       532 3.40350E+01 6.60425E+00 0.00000E+00
 -1       533 3.70350E+01 6.60425E+00 0.00000E+00
 -1       534 4.00350E+01 6.60425E+00 0.00000E+00
 -1       535 4.30350E+01 6.60425E+00 0.00000E+00
 -1       536 4.60350E+01 6.60425E+00 0.00000E+00
 -1       537 4.90350E+01 6.60425E+00 0.00000E+00
 -1       538 5.20350E+01 6.60425E+00 0.00000E+00
 -1       539 5.50350E+01 6.60425E+00 0.00000E+00
 -1       540 5.80350E+01 6.60425E+00 0.00000E+00
 -1       541 6.10350E+01 6.60425E+00 0.00000E+00
 -1       542 6.40350E+01 6.60425E+00 0.00000E+00
 -1       543 6.70350E+01 6.60425E+00 0.00000E+00
 -1       544 7.00350E+01 6.60425E+00 0.00000E+00
 -1       545 7.30350E+01 6.60425E+00 0.00000E+00
 -1       546 7.60350E+01 6.60425E+00 0.00000E+00
 -1       547 7.90350E+01 6.60425E+00 0.00000E+00
 -1       548 8.20350E+01 6.60425E+00 0.00000E+00
 -1       549 8.50350E+01 6.60425E+00 0.00000E+00
 -1       550 8.80350E+01 6.60425E+00 0.00000E+00
 -1       551 9.08850E+01 6.60425E+00 0.00000E+00
 -1       552 9.38850E+01 6.60425E+00 0.00000E+00
 -1       553 9.68850E+01 6.60425E+00 0.00000E+00
 -1       554 9.98850E+01 6.60425E+00 0.00000E+00
 -1       555 1.02885E+02 6.60425E+00 0.00000E+00
 -1       556 1.05885E+02 6.60425E+00 0.00000E+00
 -1       557 1.08885E+02 6.60425E+00 0.00000E+00
 -1       558 1.11885E+02 6.60425E+00 0.00000E+00
 -1       559 1.14885E+02 6.60425E+00 0.00000E+00
 -1       560 1.17885E+02 6.60425E+00 0.00000E+00
 -1       561 1.20885E+02 6.60425E+00 0.00000E+00
 -1       562 1.23885E+02 6.60425E+00 0.00000E+00
 -1       563 1.26885E+02 6.60425E+00 0.00000E+00
 -1       564 1.29885E+02 6.60425E+00 0.00000E+00
 -1       565 1.32885E+02 6.60425E+00 0.00000E+00
 -1       566 1.35885E+02 6.60425E+00 0.00000E+00
 -1       567 1.38885E+02 6.60425E+00 0.00000E+00
 -1       568 1.41885E+02 6.60425E+00 0.00000E+00
 -1       569 1.42206E+02 1.61750E+01 0.00000E+00
 -1       570 1.42206E+02 1.91250E+01 0.00000E+00
 -1       571 1.42206E+02 1.03250E+01 0.00000E+00
 -1       572 1.42206E+02 1.32500E+01 0.00000E+00
 -1       573 1.42206E+02 2.20750E+01 0.00000E+00
 -1       574 1.42206E+02 2.50250E+01 0.00000E+00
 -1       575 1.42206E+02 2.79750E+01 0.00000E+00
 -1       576 1.42206E+02 3.08750E+01 0.00000E+00
 -1       577 1.42206E+02 3.38250E+01 0.00000E+00
 -1       578 1.42206E+02 3.67750E+01 0.00000E+00
 -1       579 1.42206E+02 3.97250E+01 0.00000E+00
 -1       580 9.86658E+01 1.80625E+01 0.00000E+00
 -1       581 9.76395E+01 1.38580E+01 0.00000E+00
 -1       582 1.60350E+01 6.60425E+00 0.00000E+00
 -1       583 9.82354E+01 1.57273E+01 0.00000E+00